<VTKFile type="UnstructuredGrid" version="0.1" byte_order="BigEndian">
  <UnstructuredGrid>
    <Piece NumberOfPoints="12770" NumberOfCells="25528">
      <PointData>
        <DataArray type="Float64" Name="position" NumberOfComponents="3" format="ascii">
-48.4464 253.963 -334.497
-48.5622 254.784 -333.968
-48.7476 255.549 -333.408
-48.3584 255.591 -333.349
-48.4974 256.105 -332.984
-46.4615 250.377 -336.388
-13.9028 253.689 -336.059
-47.6074 251.82 -335.624
-12.3627 254.687 -335.407
-48.4509 253.287 -334.865
-48.0479 252.442 -335.263
-47.6992 252.148 -335.314
-11.3031 256.197 -334.578
-48.7792 253.881 -334.448
-48.1465 253.354 -334.69
-10.7046 257.342 -333.612
-49.0377 254.711 -333.761
-48.1858 254.254 -334.072
-48.2398 255.053 -333.658
-10.7778 257.624 -333.359
-49.1209 255.537 -332.939
-48.0667 255.456 -333.156
-48.779 256.052 -333.005
-11.6207 258.726 -331.873
-48.635 256.32 -332.812
-47.9877 256.086 -332.475
-48.4155 256.447 -332.453
-48.7886 256.262 -332.554
-47.9871 256.709 -331.661
-47.4676 256.864 -330.98
-46.5909 250.35 -336.346
-13.7433 253.544 -336.067
-44.2234 248.954 -336.559
-43.7435 248.917 -336.535
-15.2802 252.63 -336.057
-14.5976 252.894 -336.12
-46.614 250.497 -336.318
-46.3449 250.225 -336.34
-14.2492 253.422 -336.028
-13.5789 253.774 -335.969
-47.4308 251.435 -335.857
-46.4565 250.398 -336.191
-13.9066 253.789 -335.862
-12.3904 254.441 -335.48
-47.0911 250.829 -335.99
-14.9861 253.086 -335.929
-13.1506 254.082 -335.635
-47.7604 251.647 -335.733
-47.2984 251.403 -335.723
-12.6738 254.585 -335.339
-12.1161 254.753 -335.318
-48.1927 252.007 -335.491
-12.3048 254.861 -335.237
-11.327 255.836 -334.709
-48.1879 251.273 -335.638
-11.8676 255.231 -334.921
-48.7226 252.6 -334.976
-47.4163 251.769 -335.321
-11.579 256.134 -334.376
-11.1295 256.232 -334.55
-47.7086 252.497 -334.707
-11.2318 256.456 -334.382
-10.7733 257.119 -333.862
-49.1013 251.556 -335.022
-10.9107 256.637 -334.158
-49.2824 253.64 -334.103
-47.9416 253.455 -334.222
-10.9517 257.378 -333.645
-10.5775 256.865 -333.753
-49.5308 252.518 -334.3
-11.2995 256.88 -333.884
-49.5339 254.48 -333.241
-47.8824 253.97 -333.547
-10.9565 257.75 -333.255
-10.5032 257.369 -333.112
-47.9816 254.821 -333.36
-11.6111 258.352 -332.19
-10.82 257.869 -332.86
-49.8569 253.411 -333.439
-11.3022 257.78 -332.915
-49.6244 255.103 -332.296
-47.7644 255.344 -332.601
-11.8507 258.553 -331.691
-11.3644 258.649 -331.905
-11.6306 258.916 -331.538
-50.012 254.157 -332.544
-10.9728 258.267 -332.25
-49.0927 256.042 -331.88
-47.423 255.829 -331.734
-48.5542 256.582 -331.904
-47.4463 256.488 -331.42
-11.8338 258.999 -331.143
-48.2787 256.83 -331.303
-47.0073 256.7 -330.582
-47.8191 256.958 -330.823
-47.2301 256.968 -330.27
-48.6691 256.595 -331.324
-13.4025 260.129 -329.326
-47.0466 256.994 -329.578
-44.7473 248.782 -336.533
-43.7726 248.54 -336.684
-15.5555 252.034 -336.006
-14.7995 252.284 -336.103
-42.641 248.19 -336.696
-41.8336 248.061 -336.595
-41.4133 248.033 -336.443
-44.6423 249.097 -336.442
-43.0649 248.68 -336.503
-15.7538 252.402 -335.896
-14.1609 252.569 -336.102
-46.8898 250.18 -336.227
-46.3437 249.932 -336.286
-44.1872 249.092 -336.246
-43.4577 248.939 -336.328
-15.5263 252.759 -335.853
-13.762 253.062 -336.048
-13.071 253.52 -335.848
-46.9247 249.413 -336.118
-45.4 249.324 -336.155
-13.5411 252.496 -335.965
-47.5917 250.333 -335.992
-46.0514 250.007 -336.062
-15.3319 252.971 -335.518
-12.3646 253.951 -335.569
-48.2085 250.507 -335.782
-46.3753 250.396 -335.544
-14.536 253.506 -335.585
-13.8353 253.946 -335.47
-11.7145 254.44 -335.221
-48.2604 249.777 -335.738
-11.8186 253.814 -335.374
-48.7522 250.653 -335.462
-46.9957 251.12 -335.396
-13.3007 254.343 -335.019
-11.2271 255.203 -334.852
-49.4149 250.8 -334.962
-12.5503 254.916 -334.887
-10.9514 255.872 -334.552
-49.2133 250.031 -335.205
-10.7439 255.276 -334.552
-49.8236 251.462 -334.352
-47.201 251.562 -334.688
-12.2274 255.534 -334.257
-10.4877 255.931 -334.07
-47.424 252.071 -333.848
-50.1655 252.33 -333.493
-47.7132 253.03 -333.727
-11.8769 256.556 -333.433
-10.1843 256.479 -333.315
-50.3421 253.171 -332.6
-47.6744 253.531 -332.81
-11.899 257.565 -332.333
-10.1013 257.026 -332.55
-47.718 254.491 -332.724
-50.3819 253.885 -331.653
-47.441 254.982 -331.841
-12.1131 257.967 -331.568
-10.4574 257.896 -331.963
-50.0255 254.669 -331.776
-10.9495 258.651 -331.414
-49.6648 255.372 -331.137
-47.0449 255.45 -330.967
-12.2087 258.675 -330.897
-11.4564 259.1 -330.899
-46.9872 256.198 -330.876
-13.2831 259.821 -329.412
-11.9952 259.229 -330.52
-50.1642 254.614 -331.106
-10.989 258.927 -330.758
-48.9679 256.245 -330.737
-46.6377 256.41 -330.187
-13.4943 260.074 -329.253
-13.1434 260.044 -329.336
-48.3261 256.79 -330.652
-47.6917 256.968 -329.923
-13.4844 260.181 -329.044
-12.6325 259.394 -329.863
-47.2759 256.968 -329.18
-46.5707 256.734 -329.617
-46.6651 256.85 -328.847
-47.7655 256.85 -329.188
-46.1699 256.696 -328.852
-13.7186 260.08 -328.53
-13.4892 260.254 -328.613
-42.6544 247.775 -336.839
-41.9525 247.662 -336.719
-41.3902 247.798 -336.563
-42.7042 247.171 -336.812
-41.7048 247.089 -336.665
-43.368 247.863 -336.819
-41.0349 247.75 -336.362
-47.2302 248.162 -335.877
-45.8107 248.521 -336.315
-44.6 247.933 -336.633
-41.9449 248.288 -336.187
-41.1003 247.924 -336.165
-15.9648 251.303 -335.88
-14.9505 251.406 -335.987
-13.8737 251.899 -335.918
-43.8298 247.258 -336.804
-16.545 250.473 -335.728
-15.5883 250.598 -335.951
-14.7083 250.616 -335.91
-47.8856 248.984 -335.823
-42.8713 248.741 -336.167
-16.0948 251.896 -335.697
-13.0305 252.109 -335.739
-48.4288 249.106 -335.65
-44.4053 249.081 -335.392
-43.4277 248.884 -335.853
-15.8727 252.437 -335.539
-12.7332 252.694 -335.697
-12.0715 253.304 -335.468
-48.5286 248.472 -335.46
-12.2895 252.003 -335.43
-48.9777 249.23 -335.364
-45.5342 249.671 -335.403
-15.6932 252.559 -334.96
-11.1831 253.557 -334.999
-49.6886 249.466 -334.894
-45.968 249.966 -334.617
-14.9612 253.183 -334.919
-14.1591 253.789 -334.958
-10.8809 254.512 -334.758
-50.3912 248.344 -334.414
-49.6119 248.603 -334.91
-50.0263 250.327 -334.442
-46.6539 250.738 -334.674
-13.7185 254.08 -334.274
-10.2972 254.853 -334.208
-12.9615 254.776 -334.221
-50.4567 249.21 -334.272
-50.4785 251.233 -333.514
-46.9938 251.16 -333.819
-12.5833 255.421 -333.391
-9.9083 255.413 -333.51
-47.2871 251.617 -332.97
-50.8586 250.149 -333.493
-50.7138 252.126 -332.434
-47.5435 252.539 -332.904
-12.3047 256.254 -332.512
-9.65499 256.065 -332.578
-51.0624 251.009 -332.569
-9.26503 256.084 -331.634
-50.6525 253.007 -331.792
-47.542 252.984 -331.826
-12.2551 257.021 -331.706
-9.80333 257.073 -331.594
-47.5188 254.039 -331.908
-9.38224 256.73 -330.887
-50.6792 253.34 -331.081
-47.2037 254.452 -330.92
-12.3586 257.679 -331.002
-10.1198 257.818 -331.12
-47.4251 253.638 -331.183
-50.4403 254.054 -330.497
-46.7394 255.058 -330.092
-12.6401 258.31 -330.214
-10.5106 258.453 -330.596
-50.0153 254.895 -330.384
-46.6281 255.864 -330.216
-13.1754 258.946 -329.37
-11.0906 259.087 -330.108
-49.3749 255.614 -329.637
-46.3022 256.17 -329.556
-13.5884 259.776 -328.964
-11.8175 259.469 -329.659
-48.4363 256.555 -329.689
-46.0344 256.39 -328.96
-13.8909 259.652 -328.216
-12.6483 259.93 -329.184
-46.3628 255.541 -329.532
-11.2057 259.226 -329.422
-48.0769 256.595 -328.802
-45.8874 256.484 -328.506
-13.8673 259.926 -327.964
-13.1687 260.215 -328.885
-47.3197 256.69 -328.338
-46.5417 256.629 -328.036
-46.1129 256.605 -328.294
-13.598 260.119 -328.096
-13.2002 260.18 -328.315
-48.6387 256.203 -328.859
-12.8028 260.097 -328.609
-32.5881 239.391 -342.464
-31.6917 239.324 -342.388
-34.7984 240.035 -342.03
-33.5829 239.862 -342.165
-32.8268 239.981 -342.015
-32.079 239.941 -341.854
-24.9864 240.795 -341.964
-24.2403 240.984 -341.989
-68.8849 237.077 -341.338
-68.1625 237.175 -341.379
-67.6363 237.18 -341.366
-35.6868 240.507 -341.532
-34.8314 240.722 -341.44
-34.1157 240.514 -341.625
-33.1285 240.529 -341.38
-24.634 241.338 -341.499
-23.7233 241.482 -341.582
-23.0307 241.878 -341.143
-69.291 237.301 -341.011
-68.4991 237.487 -341.046
-67.5459 237.541 -340.951
-36.0304 240.956 -340.958
-35.2828 241.083 -340.939
-34.2814 241.054 -340.921
-23.9688 241.868 -340.877
-68.998 237.701 -340.562
-68.0166 237.908 -340.48
-66.9788 238 -340.262
-42.8243 246.233 -336.666
-41.8654 246.518 -336.608
-43.6884 244.988 -336.432
-42.9448 245.367 -336.492
-43.5119 246.697 -336.788
-41.233 246.738 -336.495
-44.0474 246.74 -336.754
-40.9587 247.183 -336.342
-17.0178 249.541 -335.64
-16.0403 249.667 -335.92
-14.9231 249.923 -335.884
-44.0935 245.973 -336.565
-40.831 246.609 -336.288
-17.5195 248.726 -335.536
-16.6949 248.886 -335.856
-15.938 248.928 -335.983
-44.6675 246.942 -336.599
-40.6117 247.503 -335.975
-17.1561 250.138 -335.287
-14.1105 250.149 -335.742
-48.3026 247.383 -335.243
-47.1502 246.965 -335.646
-45.9116 247.327 -336.218
-41.5712 248.075 -335.342
-40.7825 247.707 -335.564
-16.8907 250.678 -335.448
-13.7406 250.847 -335.692
-12.6372 251.373 -335.421
-46.389 246.335 -335.863
-45.3792 246.272 -336.274
-40.1305 247.236 -335.474
-13.3365 250.028 -335.464
-49.1323 247.884 -335.041
-42.511 248.529 -335.651
-16.5517 251.185 -335.518
-11.7478 251.578 -335.105
-50.7526 247.794 -334.102
-49.9004 247.709 -334.588
-44.078 248.655 -334.424
-43.1521 248.53 -334.995
-16.3271 251.754 -334.987
-11.3086 252.269 -334.974
-49.1991 247.303 -334.814
-42.1915 248.251 -335.06
-16.9298 250.804 -335.031
-11.2138 251.464 -334.824
-51.0348 248.473 -333.943
-45.0617 249.159 -334.314
-15.9324 252.192 -334.539
-10.3757 252.866 -334.466
-45.7954 249.604 -333.836
-15.3141 252.59 -334.047
-14.4394 253.456 -334.233
-10.2775 253.81 -334.357
-51.3435 247.943 -333.716
-44.4944 248.671 -333.983
-16.1194 251.747 -334.073
-9.46499 253.006 -333.741
-8.69172 252.756 -333.11
-51.3067 249.187 -333.434
-46.4112 250.246 -333.677
-13.9866 253.755 -333.782
-9.66184 254.262 -333.656
-13.4075 254.232 -333.269
-51.6597 248.419 -333.382
-46.0289 249.613 -333.179
-14.9974 252.407 -333.047
-14.3432 253.205 -333.301
-8.89705 253.771 -332.897
-51.5895 249.955 -332.428
-46.9151 250.772 -332.845
-12.7869 255.054 -332.447
-9.32934 254.904 -332.917
-47.23 251.23 -332.204
-9.16052 255.375 -332.256
-51.9515 248.946 -332.764
-13.1895 254.145 -332.252
-8.86973 254.653 -332.327
-51.4402 250.947 -331.562
-47.4487 251.974 -332.072
-12.5129 255.744 -331.554
-8.80811 255.209 -331.633
-51.1089 251.639 -331.76
-47.3457 251.352 -331.385
-12.85 254.535 -331.604
-50.9486 252.449 -331.067
-47.483 252.155 -331.09
-12.4211 256.687 -331.047
-8.91409 255.978 -330.71
-9.24729 256.792 -330.161
-51.2645 251.644 -331.043
-47.4145 251.518 -330.576
-50.7632 253.229 -330.329
-47.43 252.968 -330.727
-12.5641 257.118 -330.348
-9.79451 257.574 -330.308
-47.27 253.682 -330.501
-9.39679 257.179 -329.503
-50.5759 253.631 -329.373
-46.9413 254.118 -329.871
-12.8854 257.677 -329.55
-10.1911 258.236 -329.775
-50.1208 254.593 -329.514
-13.3283 258.088 -328.724
-49.71 254.902 -328.542
-46.4077 254.687 -329.01
-13.6812 259.041 -328.511
-10.663 258.75 -329.371
-46.009 255.679 -328.763
-45.7995 256.142 -328.423
-14.0338 259.039 -327.641
-11.3348 259.221 -328.637
-50.2191 254.215 -328.694
-48.9709 255.623 -328.247
-45.8062 256.205 -327.979
-14.0374 259.521 -327.422
-12.2036 259.767 -328.625
-48.0952 256.23 -327.965
-47.441 256.379 -327.556
-46.7738 256.3 -327.192
-46.1032 256.273 -327.542
-13.7321 259.79 -327.399
-13.225 259.912 -327.605
-12.6761 259.902 -327.99
-46.9044 256.071 -326.456
-38.023 236.347 -343.565
-36.7876 236.304 -343.734
-35.6874 236.313 -343.809
-29.5854 237.265 -343.481
-28.2838 237.231 -343.523
-27.2114 237.276 -343.545
-32.7987 238.634 -342.929
-31.8967 238.671 -342.85
-39.0122 236.915 -343.068
-37.9745 237.26 -343.109
-37.0822 237.155 -343.301
-35.9754 237.173 -343.407
-34.7143 237.108 -343.518
-33.5645 237.207 -343.526
-32.4895 237.726 -343.318
-30.8817 237.923 -343.159
-29.6111 238.22 -342.958
-28.5964 238.098 -343.053
-27.4627 238.082 -343.135
-26.2584 238.107 -343.218
-24.9036 238.502 -343.129
-23.6185 238.72 -343.065
-22.3816 238.854 -342.972
-21.1893 238.958 -342.862
-20.0902 239.038 -342.759
-19.2897 239.069 -342.692
-33.3923 239.077 -342.701
-31.0808 238.9 -342.599
-35.3179 239.281 -342.466
-34.3395 239.153 -342.614
-25.4723 240.224 -342.22
-24.6866 240.321 -342.334
-39.5496 237.914 -342.315
-38.3711 237.932 -342.644
-37.336 237.989 -342.839
-36.42 237.914 -343.016
-35.2703 238.27 -342.966
-33.7674 238.186 -343.11
-30.1134 238.915 -342.467
-28.9292 238.862 -342.504
-27.7368 238.902 -342.591
-26.705 238.876 -342.764
-25.5137 239.39 -342.658
-24.075 239.73 -342.638
-22.8032 239.818 -342.55
-21.582 239.92 -342.386
-20.3904 239.931 -342.262
-19.2593 239.88 -342.18
-35.741 239.796 -342.094
-30.9069 239.57 -341.931
-25.6535 240.587 -341.861
-23.9372 240.584 -342.279
-69.2023 236.765 -341.328
-68.5417 236.737 -341.441
-67.931 236.958 -341.511
-36.4149 239.93 -341.831
-31.4628 240.071 -341.437
-25.293 241.014 -341.618
-23.5926 241.058 -342.003
-22.9768 241.344 -341.727
-40.4242 238.38 -341.663
-39.4759 238.841 -341.664
-38.5681 238.791 -342.015
-37.6587 238.679 -342.357
-36.4595 238.963 -342.44
-30.0755 239.429 -341.941
-29.3622 239.397 -341.934
-28.1549 239.579 -341.845
-26.5591 239.851 -342.08
-23.2212 240.62 -342.215
-22.123 240.934 -341.858
-20.8176 240.893 -341.677
-19.6479 240.778 -341.595
-18.689 240.68 -341.518
-69.4372 236.968 -341.203
-67.5683 236.98 -341.417
-36.6555 240.484 -341.239
-32.0597 240.413 -341.035
-25.2337 241.237 -341.335
-22.3319 241.706 -341.323
-32.7569 240.817 -340.704
-25.0267 241.507 -340.844
-22.2975 242.112 -340.814
-68.7438 236.381 -341.228
-39.9317 239.344 -340.968
-38.7107 239.591 -341.251
-37.4648 239.609 -341.709
-31.4239 240.221 -341.022
-27.2447 240.202 -341.22
-25.9603 240.824 -341.231
-21.3516 241.881 -340.911
-20.0305 241.63 -340.913
-18.9597 241.407 -340.907
12.3795 244.269 -339.964
-69.7736 237.045 -340.9
-67.1653 237.179 -341.057
-36.6025 240.96 -340.618
-33.4486 241.095 -340.423
-24.4929 241.896 -340.365
-22.966 242.254 -340.329
-69.8148 237.377 -340.477
-66.547 237.557 -340.434
-35.8751 241.27 -340.381
-34.9841 241.399 -340.294
-34.2467 241.382 -340.195
-23.8743 242.12 -340.151
-70.19 236.869 -340.433
-66.7109 237.189 -340.668
-40.0517 239.917 -340.138
-38.9953 240.164 -340.37
-37.636 240.468 -340.669
-32.8847 240.97 -340.289
-25.0218 241.673 -340.176
-21.8677 242.387 -340.233
-21.1696 242.398 -340.204
-20.3535 242.341 -340.089
-19.253 242.071 -340.203
-69.4729 237.748 -340.076
-66.1174 237.987 -339.906
-68.6106 238.049 -339.84
-67.4374 238.25 -339.776
-66.3762 238.289 -339.595
-70.0029 237.537 -339.915
-65.5463 238.142 -339.417
-39.3341 240.457 -339.509
-38.1261 240.769 -339.617
-36.7535 241.137 -339.795
-35.5805 241.442 -339.657
-34.6879 241.499 -339.649
-22.287 242.497 -339.507
-21.1418 242.597 -339.532
-43.8637 244.157 -336.226
-42.9495 244.541 -336.31
-44.4906 244.938 -336.319
-42.2563 244.899 -336.303
-41.8492 245.6 -336.359
-41.0685 246.166 -336.272
-17.7543 248.121 -335.421
-17.0925 248.053 -335.692
-16.1539 248.297 -335.916
-44.7247 244.26 -336.123
-41.5536 244.817 -336.078
-16.2956 247.507 -335.765
-15.208 247.773 -335.817
-14.0765 247.706 -335.632
-45.0773 245.492 -336.258
-40.3288 246.247 -335.839
-17.9497 248.416 -335.282
-15.4248 248.541 -335.949
-46.6776 245.711 -335.549
-45.9449 245.469 -335.887
-40.1039 246.865 -335.657
-17.8842 248.739 -335.266
-15.1306 249.142 -335.903
-13.7133 249.187 -335.518
-45.2926 244.769 -336.039
-14.5436 248.458 -335.78
-13.6572 248.254 -335.523
-47.09 246.167 -335.448
-39.6761 246.756 -335.125
-17.6457 249.236 -335.102
-12.6871 249.557 -335.117
-48.8979 246.554 -334.592
-47.8453 246.34 -335.068
-40.6489 247.401 -334.627
-39.9165 247.059 -334.903
-12.384 250.281 -335.074
-11.3583 250.849 -334.723
-11.901 249.485 -334.696
-49.6471 247.018 -334.459
-41.5627 247.874 -334.724
-17.355 249.962 -334.44
-10.5357 251.26 -334.394
-51.2256 247.262 -333.555
-50.3454 247.106 -334.091
-43.2246 248.03 -333.9
-42.2479 247.956 -334.405
-16.7518 250.947 -334.241
-9.81365 251.884 -334.035
-8.82186 252.044 -333.341
-9.64716 250.97 -333.815
-51.7607 247.815 -333.309
-44.0902 248.353 -333.767
-16.3464 251.056 -333.332
-8.28061 252.259 -332.848
-44.7045 248.511 -333.326
-15.6572 251.807 -333.214
-7.7776 252.201 -332.291
-52.2015 248.184 -332.777
-45.4797 249.1 -333.269
-15.1162 251.84 -332.359
-8.22056 252.977 -332.472
-45.9317 249.246 -332.447
-14.4299 252.575 -332.35
-13.7381 253.397 -332.373
-52.5441 247.754 -332.366
-7.64367 253.017 -331.655
-52.3297 248.687 -332.397
-46.4639 249.971 -332.591
-13.2789 253.591 -331.556
-8.29499 254.121 -331.713
-52.2795 249.228 -331.846
-52.6263 248.366 -331.99
-7.65832 253.768 -330.979
-51.9566 250.192 -331.041
-46.9545 250.503 -331.721
-12.8986 253.942 -330.847
-8.48422 255.091 -330.961
-12.6437 254.873 -330.943
-52.4198 249.517 -330.906
-51.5308 251.199 -330.387
-47.2161 250.791 -330.666
-12.5349 255.775 -330.477
-8.48837 255.514 -330.177
-51.217 251.948 -330.368
-47.3227 251.167 -329.809
-50.9738 252.587 -329.615
-47.3736 252.152 -329.971
-12.6709 256.411 -329.607
-8.86932 256.354 -329.434
-47.1895 253.171 -329.809
-9.30078 257.104 -328.8
-51.2947 251.808 -329.712
-50.7427 253.071 -328.848
-46.7814 253.539 -328.915
-12.9766 256.938 -328.813
-9.91852 257.886 -328.928
-13.3861 257.309 -328.002
-9.52153 257.343 -328.101
-50.4088 253.492 -328.181
-46.2977 253.84 -327.98
-13.7717 258.285 -327.868
-10.5975 258.571 -328.351
-49.9433 254.273 -327.948
-45.9444 254.826 -327.959
-45.7462 255.628 -327.902
-14.1382 258.337 -326.99
-11.0872 258.756 -327.534
-49.2061 254.787 -327.325
-45.7651 255.688 -327.234
-14.2693 258.917 -326.66
-11.9347 259.417 -327.739
-48.4329 255.592 -327.272
-47.5499 255.959 -326.81
-46.0717 255.766 -326.594
-13.9723 259.28 -326.532
-13.3141 259.446 -326.738
-12.5986 259.491 -327.131
-47.0967 255.878 -326.127
-46.4948 255.991 -326.38
-46.6695 255.842 -325.957
-47.4219 255.594 -326.014
-14.3179 258.949 -326.046
-29.9054 270.087 -314.028
-29.9796 270.796 -313.602
-30.2524 271.33 -313.145
-29.8675 271.501 -312.99
-32.1298 227.151 -350.909
-30.9259 227.178 -351.039
-29.77 227.258 -351.097
-28.5924 227.366 -351.117
-27.3944 227.496 -351.109
-26.1891 227.637 -351.083
-24.9872 227.78 -351.042
-23.8069 227.916 -350.987
-22.7164 228.026 -350.924
-34.3303 227.634 -350.199
-33.1475 227.642 -350.436
-32.1169 228.044 -350.334
-31.1935 228.016 -350.46
-30.0675 228.088 -350.517
-28.8989 228.2 -350.534
-27.7128 228.332 -350.53
-26.5194 228.475 -350.512
-25.3238 228.618 -350.485
-24.1299 228.756 -350.45
-22.9405 228.87 -350.409
-21.7006 228.907 -350.376
-20.4798 229.238 -350.115
-34.9564 228.618 -349.42
-33.6577 228.591 -349.683
-32.4996 228.699 -349.778
-31.4039 228.836 -349.805
-30.2905 228.932 -349.835
-29.1246 229.05 -349.843
-27.9381 229.185 -349.838
-26.7464 229.328 -349.825
-25.5542 229.476 -349.808
-24.3605 229.623 -349.786
-23.162 229.76 -349.756
-21.9511 229.881 -349.711
-20.7404 230.02 -349.616
-19.5682 230.113 -349.494
-36.0868 229.386 -348.659
-34.89 229.65 -348.679
-33.933 229.529 -348.909
-32.7876 229.555 -349.033
-31.6349 229.654 -349.074
-30.4779 229.779 -349.075
-29.298 229.912 -349.064
-28.1003 230.051 -349.054
-26.901 230.194 -349.048
-25.7066 230.343 -349.041
-24.5149 230.495 -349.031
-23.321 230.647 -349.015
-22.1217 230.79 -348.986
-20.9237 230.918 -348.934
-19.7512 231.009 -348.858
-18.6253 231.047 -348.749
-37.2021 230.121 -347.865
-36.0572 230.434 -347.862
-35.1424 230.382 -348.042
-34.07 230.419 -348.144
-32.9619 230.439 -348.235
-31.8132 230.505 -348.277
-30.6481 230.624 -348.263
-29.4525 230.778 -348.222
-28.2324 230.93 -348.199
-27.0142 231.071 -348.202
-25.8097 231.215 -348.21
-24.6161 231.367 -348.216
-23.4262 231.525 -348.214
-22.2349 231.682 -348.202
-21.0439 231.822 -348.174
-19.8699 231.916 -348.13
-18.7615 231.924 -348.08
-17.8232 231.84 -348.024
-38.2234 230.743 -347.117
-37.2098 231.143 -347.08
-36.317 231.138 -347.24
-35.2713 231.219 -347.314
-34.1928 231.266 -347.383
-33.0652 231.315 -347.43
-31.9203 231.365 -347.46
-30.7941 231.438 -347.46
-29.6272 231.621 -347.365
-28.3748 231.829 -347.285
-27.1167 231.961 -347.31
-25.8918 232.092 -347.343
-24.6898 232.237 -347.369
-23.4991 232.395 -347.385
-22.3114 232.562 -347.387
-21.1231 232.719 -347.374
-19.9379 232.835 -347.344
-18.7739 232.861 -347.306
-17.7374 232.7 -347.315
-38.7187 231.712 -346.275
-37.578 231.828 -346.466
-36.4881 231.958 -346.543
-35.4041 232.04 -346.599
-34.2871 232.12 -346.628
-33.1437 232.186 -346.645
-31.9786 232.239 -346.653
-30.8347 232.266 -346.666
-29.8877 232.254 -346.716
-28.6064 232.82 -346.255
-27.2345 232.882 -346.385
-25.976 232.98 -346.471
-24.7608 233.107 -346.525
-23.5642 233.259 -346.558
-22.3743 233.429 -346.572
-21.185 233.603 -346.569
-19.994 233.752 -346.546
-18.7956 233.833 -346.498
-17.5327 233.793 -346.414
-39.1918 232.706 -345.481
-37.9077 232.712 -345.748
-36.7023 232.795 -345.86
-35.5334 232.89 -345.901
-34.3814 232.977 -345.913
-33.2286 233.054 -345.911
-32.0565 233.122 -345.898
-30.8405 233.165 -345.881
-29.6113 233.127 -345.902
-27.3379 233.846 -345.468
-26.0674 233.887 -345.634
-24.8469 233.982 -345.722
-23.6447 234.119 -345.769
-22.4483 234.289 -345.789
-21.2515 234.477 -345.788
-20.0541 234.655 -345.765
-18.8576 234.785 -345.718
-17.667 234.827 -345.635
-16.6182 234.76 -345.516
-40.1518 233.276 -344.859
-39.1882 233.654 -344.889
-38.195 233.634 -345.078
-36.9358 233.695 -345.194
-35.6841 233.778 -345.241
-34.4921 233.846 -345.259
-33.3318 233.921 -345.255
-32.1957 233.977 -345.247
-31.007 234.076 -345.197
-29.6337 234.139 -345.128
-27.3252 234.867 -344.721
-26.1462 234.816 -344.898
-24.9551 234.867 -345.002
-23.7585 234.982 -345.055
-22.5579 235.143 -345.072
-21.3493 235.344 -345.058
-20.1341 235.553 -345.018
-18.9248 235.722 -344.962
-17.724 235.813 -344.88
-16.4882 235.797 -344.746
-38.6203 235.481 -343.929
-37.6184 235.441 -344.086
-36.4304 235.495 -344.161
-30.1064 236.277 -343.955
-29.0486 236.268 -343.965
-27.8516 236.415 -343.913
-40.6588 234.227 -344.134
-39.6952 234.164 -344.463
-38.626 234.568 -344.437
-37.2691 234.581 -344.601
-35.8605 234.773 -344.594
-34.6304 234.729 -344.68
-33.4739 234.793 -344.686
-32.325 234.846 -344.685
-31.3449 234.792 -344.73
-30.0969 235.225 -344.495
-28.4736 235.205 -344.488
-27.1724 235.9 -344.177
-26.2004 235.745 -344.319
-25.09 235.76 -344.403
-23.9172 235.854 -344.444
-22.7209 236 -344.448
-21.5106 236.199 -344.413
-20.2698 236.455 -344.327
-19.023 236.674 -344.23
-17.8156 236.785 -344.143
-16.6485 236.81 -344.029
-15.641 236.735 -343.9
-39.0522 235.992 -343.575
-35.4906 235.658 -344.126
-30.6884 236.814 -343.7
-26.9858 236.662 -343.825
-39.7803 236.14 -343.318
-34.9002 236.2 -343.895
-34.059 236.386 -343.851
-32.9809 236.588 -343.797
-31.7692 236.775 -343.723
-26.4584 237.2 -343.613
-25.5933 237.431 -343.557
-24.4454 237.623 -343.52
-23.2381 237.777 -343.474
-22.0337 237.92 -343.405
-20.8646 238.081 -343.309
-19.7815 238.306 -343.162
-41.4583 234.804 -343.473
-40.6924 234.997 -343.688
-39.7564 235.16 -343.866
-34.737 235.56 -344.211
-33.6992 235.638 -344.215
-32.544 235.747 -344.193
-31.2365 235.791 -344.19
-26.2723 236.581 -343.897
-25.277 236.631 -343.931
-24.1354 236.738 -343.94
-22.9446 236.873 -343.922
-21.7447 237.044 -343.871
-20.5332 237.289 -343.764
-19.1844 237.722 -343.498
-17.9271 237.786 -343.405
-16.7639 237.794 -343.29
-15.5843 237.727 -343.127
-40.1902 236.869 -342.765
-18.9362 238.682 -342.893
-41.9263 235.789 -342.645
-40.762 235.803 -343.182
-18.0317 238.879 -342.651
-16.9259 238.778 -342.547
-15.869 238.691 -342.39
-14.9113 238.568 -342.2
-40.5555 237.565 -342.21
-18.591 239.435 -342.39
-41.1221 237.723 -341.845
-18.4375 240.114 -341.913
-42.6073 236.265 -341.857
-41.9852 236.614 -342.107
-41.2586 236.849 -342.344
-17.866 239.92 -341.902
-17.0765 239.735 -341.814
-16.123 239.601 -341.632
-15.1452 239.41 -341.437
-41.1965 238.229 -341.4
-18.0301 240.539 -341.481
-69.1961 236.468 -341.202
-67.8927 236.74 -341.419
-40.8044 238.817 -341.085
-29.924 239.759 -341.294
-28.9493 239.74 -341.377
-28.229 239.97 -341.031
12.2737 244.092 -339.955
-42.8326 237.095 -340.989
-41.9057 237.466 -341.497
-17.3167 240.666 -341.061
-16.4624 240.365 -341.002
-15.5099 240.36 -340.522
13.3941 243.707 -339.892
-69.7305 236.65 -340.945
-69.1181 236.198 -340.921
-68.2816 236.487 -341.282
-67.4441 236.845 -341.22
-40.7656 239.33 -340.488
-30.9 240.003 -341.142
-27.6496 240.213 -340.573
-18.089 241.137 -340.923
12.1074 244.301 -339.818
12.7456 244.075 -339.966
-70.206 236.267 -340.162
-68.4989 236.196 -340.809
-67.051 236.812 -340.705
-31.3135 240.216 -340.345
-26.8003 240.579 -340.439
-25.7621 241.188 -340.221
12.5301 244.318 -339.688
-69.5884 236.261 -340.763
-67.7725 236.529 -341.03
-42.3104 238.145 -340.463
-41.45 238.585 -340.813
-30.4002 239.969 -340.64
-28.2415 240.048 -340.408
-17.5137 241.43 -340.29
-16.4917 241.231 -339.934
11.878 244.157 -339.736
13.1962 244.069 -339.728
-70.6374 236.642 -339.731
-66.2901 237.084 -340.159
-40.6864 239.714 -339.988
-32.3553 240.695 -340.274
-25.2085 241.499 -339.7
-18.2969 241.792 -340.207
-70.3734 237.165 -339.96
-65.341 237.543 -339.494
-40.3713 240.092 -339.431
-33.0616 240.942 -339.701
-24.4465 241.87 -339.658
-23.3718 242.242 -339.425
-19.4365 242.514 -339.469
-18.6152 242.266 -339.586
-66.6518 236.593 -340.03
-41.389 239.277 -339.846
-25.6642 241.119 -339.461
-17.564 242.036 -339.301
-70.2941 237.37 -339.511
-64.5183 238.076 -338.857
-39.6668 240.538 -338.865
-33.9146 241.326 -339.675
-22.6244 242.392 -338.856
-20.2025 242.661 -339.329
-69.5772 237.751 -339.317
-68.63 238.12 -339.092
-67.8835 238.293 -339.231
-66.7817 238.408 -338.928
-65.5666 238.381 -338.942
-38.6377 240.806 -338.592
-37.3022 241.061 -338.751
-36.1154 241.281 -338.886
-35.1196 241.396 -338.992
-34.3922 241.374 -339.143
-21.6134 242.526 -338.622
-20.4573 242.688 -338.704
-70.6315 236.984 -339.397
-63.4522 237.918 -338.517
-62.8693 237.964 -338.257
-40.2584 240.357 -338.705
-23.1941 242.131 -338.638
-19.6369 242.689 -338.851
-18.6457 242.525 -338.758
-17.6829 242.431 -338.356
-66.6787 238.363 -338.113
-65.7108 238.436 -338.244
-44.5071 243.545 -336.005
-43.6702 243.232 -336.039
-42.8616 243.695 -336.081
-42.068 244.235 -336.074
-16.5441 246.723 -335.549
-15.494 246.824 -335.656
-14.3741 246.966 -335.596
-44.2583 242.758 -335.906
-43.6007 242.593 -335.945
-45.288 243.925 -335.834
-41.1397 244.212 -335.749
-17.0588 247.309 -335.579
-13.5906 247.106 -335.464
-40.6462 245.2 -335.767
-17.7097 247.446 -335.284
-13.1653 247.555 -335.324
-13.1534 246.972 -335.311
-45.9892 244.515 -335.61
-39.8089 245.538 -335.332
-18.0869 247.913 -334.978
-12.8481 248.234 -335.151
-46.549 245.098 -335.432
-39.4568 245.988 -335.011
-18.053 248.529 -334.884
-12.1295 248.696 -334.724
-46.7132 244.315 -335.007
-39.3981 245.332 -334.962
-12.187 248.015 -334.77
-47.2581 245.406 -335.043
-39.2774 246.374 -334.525
-17.9058 248.912 -334.256
-11.3279 249.066 -334.274
-49.1437 245.868 -334.012
-48.2541 245.506 -334.357
-40.2925 246.75 -333.647
-39.512 246.521 -334.023
-11.0578 249.752 -334.252
-10.074 250.33 -333.863
-47.517 244.593 -334.399
-38.892 245.987 -333.936
-10.6585 248.979 -333.794
-49.7611 246.457 -334.058
-41.3002 247.404 -334.042
-17.5469 249.336 -333.46
-9.20665 250.496 -333.408
-51.386 246.487 -332.941
-50.5646 246.46 -333.545
-42.9503 247.31 -332.907
-42.1212 247.389 -333.538
-16.9764 250.229 -333.45
-8.83287 251.112 -333.278
-8.14633 251.597 -332.771
-8.62207 250.39 -332.938
-52.0487 247.303 -332.815
-43.8843 247.886 -333.083
-16.4469 250.385 -332.55
-7.55896 251.507 -332.166
-52.6153 247.186 -332.085
-44.5343 247.907 -332.321
-15.7973 251.134 -332.453
-52.8315 247.739 -331.857
-45.2834 248.574 -332.41
-15.1859 251.202 -331.619
-7.13841 252.092 -331.515
-45.8089 248.786 -331.56
-14.511 251.933 -331.553
-13.8501 252.731 -331.541
-6.60724 252.239 -330.784
-52.9724 248.07 -331.212
-46.4074 249.573 -331.627
-13.3342 252.98 -330.763
-7.03731 253.072 -330.642
-52.7186 248.848 -331.103
-7.45947 253.998 -330.229
-6.55615 252.633 -330.372
-52.6475 249.309 -330.118
-46.8144 249.947 -330.724
-12.919 253.4 -330.041
-8.02093 254.655 -330.431
-52.2924 249.903 -330.297
-12.6489 254.488 -330.201
-7.6685 254.626 -329.467
-51.9528 250.481 -329.715
-47.0828 250.312 -329.817
-12.5797 255.147 -329.53
-8.249 255.455 -329.284
-47.1876 250.677 -328.944
-52.3456 249.892 -329.644
-7.89285 255.13 -328.695
-51.5035 251.285 -329.222
-47.242 251.566 -328.937
-12.7132 255.746 -328.797
-8.58566 256.056 -328.724
-51.1875 251.955 -328.989
-47.088 252.525 -328.92
-50.8395 252.487 -328.283
-46.6757 252.832 -327.973
-13.0097 256.23 -328.053
-8.96485 256.595 -328.205
-13.4001 256.541 -327.27
-9.45177 257.041 -327.277
-50.3174 252.8 -327.156
-46.2251 253.065 -327.065
-13.814 257.507 -327.152
-10.1772 257.912 -327.533
-49.8188 253.758 -327.13
-45.8914 254.016 -327.073
-45.7022 254.918 -327.113
-14.1829 257.587 -326.294
-10.9113 258.138 -326.535
-49.0163 253.974 -326.205
-45.7089 255.01 -326.39
-14.3689 258.267 -326.237
-11.7892 258.885 -326.758
-48.0941 255.01 -326.169
-45.8989 255.063 -325.764
-13.5201 258.817 -325.747
-12.6069 258.903 -326.179
-47.3566 255.226 -325.592
-46.2479 255.613 -325.885
-14.4444 258.466 -325.734
-14.1245 258.944 -325.809
-46.93 255.547 -325.62
-46.4855 255.525 -325.553
-14.3542 258.735 -325.593
-46.9669 255.111 -325.263
-30.0335 269.508 -314.246
-29.9601 268.868 -314.398
-30.2345 269.98 -313.967
-29.73 269.431 -314.181
-30.4594 270.636 -313.481
-29.5657 270.301 -313.747
-29.6059 271.041 -313.347
-29.3411 270.763 -313.312
-30.603 271.235 -312.957
-29.3836 271.296 -312.771
-30.3325 271.946 -312.372
-29.7266 271.893 -312.351
-30.9378 272.223 -311.602
-30.4064 272.626 -311.508
-29.8753 272.394 -311.634
-31.1735 272.608 -310.828
-30.7043 272.923 -310.9
-30.1279 272.931 -310.887
-30.9775 224.782 -351.86
-29.5957 224.742 -351.987
-28.2475 224.774 -352.03
-26.8949 224.933 -352.015
-25.6097 225.139 -351.946
-24.3928 225.342 -351.85
-23.2787 225.521 -351.74
-32.5357 226.303 -351.277