<VTKFile type="UnstructuredGrid" version="0.1" byte_order="BigEndian">
  <UnstructuredGrid>
    <Piece NumberOfPoints="13762" NumberOfCells="27524">
      <PointData>
        <DataArray type="Float64" Name="position" NumberOfComponents="3" format="ascii">
-46.439 231.937 -308.994
-7.33112 235.976 -308.67
-46.756 232.404 -308.587
-7.42695 236.381 -308.348
-47.0572 232.789 -308.181
-8.65129 238.174 -306.674
-8.86847 238.301 -306.468
-46.1281 235.306 -305.759
-45.0228 229.98 -309.885
-44.5733 229.915 -309.748
-7.68584 233.819 -309.774
-7.26742 234.063 -309.682
-46.2934 231.404 -309.276
-7.49162 235.486 -308.965
-45.695 230.675 -309.564
-45.0138 230.403 -309.588
-7.48352 234.657 -309.349
-46.7632 231.739 -308.982
-45.9769 231.586 -309.123
-7.632 235.973 -308.642
-7.11581 235.442 -308.868
-47.2198 232.253 -308.442
-46.2663 232.272 -308.651
-7.73384 236.55 -308.113
-7.07777 236.249 -308.141
-8.50498 237.703 -306.929
-7.45151 236.783 -307.817
-47.5487 231.829 -308.289
-47.3171 232.754 -308.057
-46.5677 233.017 -307.889
-8.78442 237.997 -306.697
-8.39658 238.045 -306.685
-47.2013 233.122 -307.639
-47.5862 232.536 -307.737
-7.94524 237.334 -307.176
-9.01919 238.059 -306.414
-8.68792 238.386 -306.296
-46.2265 235.105 -305.903
-9.15389 238.446 -305.969
-46.859 233.877 -306.804
-46.2348 234.492 -306.27
-46.3009 235.28 -305.809
-45.7556 235.065 -305.57
-46.1493 235.408 -305.518
-46.6011 234.936 -305.818
-10.2317 238.629 -305.172
-9.79627 238.575 -305.376
-9.38127 238.758 -305.334
-45.61 235.797 -304.754
-44.5847 236.044 -304.166
-45.0065 236.258 -303.901
-44.1076 236.385 -303.569
-44.9599 229.431 -310.022
-44.5963 229.549 -309.962
-7.79566 233.148 -309.929
-7.38117 233.522 -309.885
-42.8362 227.812 -310.051
-8.57638 231.993 -309.96
-7.95579 232.433 -310.007
-45.4343 229.875 -309.896
-44.2112 229.442 -309.767
-8.03971 233.445 -309.802
-7.0206 233.701 -309.716
-46.0168 230.026 -309.682
-44.2439 229.799 -309.535
-8.11336 233.939 -309.445
-8.50039 232.805 -309.713
-46.4783 230.871 -309.34
-44.582 230.293 -309.263
-7.95313 235.099 -308.892
-6.79991 234.48 -309.221
-45.3131 231.095 -309.083
-44.183 229.887 -309.252
-8.37329 234.23 -308.943
-6.20809 234.664 -308.539
-47.1651 231.242 -308.835
-45.7864 231.878 -308.739
-7.92724 235.968 -308.419
-6.62681 235.457 -308.385
-47.6296 231.191 -308.386
-47.4218 230.559 -308.707
-45.407 231.763 -308.342
-6.14659 235.392 -307.694
-47.8728 231.647 -307.762
-45.9474 232.453 -308.192
-8.1031 236.438 -307.881
-6.58823 236.187 -307.435
-8.41417 236.866 -307.297
-45.575 232.456 -307.622
-8.39879 236.068 -307.698
-6.17203 235.962 -306.894
-48.0294 232.387 -306.76
-46.021 233.004 -307.601
-8.85214 237.343 -306.705
-7.17428 237.006 -306.999
-47.5456 233.284 -306.847
-46.1977 233.636 -307.017
-7.63545 237.724 -306.313
-45.7484 233.148 -307.061
-47.4094 234.101 -305.806
-45.6325 233.846 -306.207
-9.38011 237.809 -305.96
-8.21347 238.19 -306.085
-10.3799 238.479 -304.952
-9.97475 238.111 -305.309
-47.8962 233.264 -306.065
-7.76874 238.105 -305.548
-46.9947 235.021 -304.956
-45.0279 234.448 -305.051
-10.4174 238.746 -305.034
-8.82031 238.61 -305.592
-46.3682 235.531 -305.064
-44.9443 235.457 -304.716
-10.2956 238.772 -304.95
-9.87533 238.87 -304.626
-9.13634 238.819 -304.919
-10.4906 238.723 -304.87
-46.1286 235.852 -304.63
-44.2915 235.736 -304.16
-45.8886 236.077 -304.102
-43.7739 236.135 -303.677
-46.5283 235.672 -304.425
-44.4885 235.173 -304.365
-11.0131 238.676 -303.573
-10.4323 238.888 -303.783
-45.3935 236.318 -303.517
-43.4825 236.448 -303.349
-44.5559 236.423 -303.093
-43.6236 236.507 -303.057
-45.9351 236.188 -303.503
-43.1872 236.496 -303.083
-43.0718 227.668 -310.053
-8.70236 231.42 -309.99
-8.06152 231.734 -310.048
-10.9248 230.173 -310.022
-10.048 230.611 -309.988
-43.0027 227.921 -310.017
-42.6907 227.62 -309.992
-9.49062 231.543 -309.656
-7.54618 232.102 -310.028
-44.9332 228.974 -310.018
-44.3927 228.973 -309.954
-42.7916 227.864 -309.87
-7.13809 232.794 -309.851
-44.9455 228.266 -309.879
-43.5193 228.183 -309.826
-10.6671 230.705 -309.691
-7.15701 232.052 -309.915
-45.5134 229.247 -309.896
-43.8303 228.956 -309.653
-9.14511 232.483 -309.2
-6.5766 233.554 -309.478
-46.1373 229.483 -309.67
-8.68243 233.379 -309.102
-6.27651 234.03 -309.076
-46.1886 228.716 -309.559
-6.10151 233.467 -309.133
-46.7717 229.965 -309.254
-43.9086 229.443 -309.286
-8.71662 233.944 -308.41
-5.86479 233.899 -308.617
-47.4326 229.808 -308.713
-44.1876 230.001 -308.675
-8.36695 234.731 -308.571
-47.0834 228.963 -309.011
-47.8783 230.486 -308.059
-44.8132 230.9 -308.498
-8.25516 235.522 -308.241
-5.74256 234.534 -307.825
-8.53967 235.362 -307.747
-8.53637 234.792 -308.114
-48.252 231.184 -307.043
-45.044 231.593 -307.63
-8.72376 235.982 -307.092
-5.74673 235.268 -306.779
-6.02234 236.03 -306.179
-48.4078 231.783 -306.175
-45.2654 232.515 -306.678
-9.12841 236.555 -306.202
-6.51785 236.656 -306.215
-6.1373 236.383 -305.473
-48.3064 232.672 -305.417
-45.112 233.177 -305.556
-9.6141 237.082 -305.432
-7.18528 237.562 -305.606
-47.9422 233.597 -305.327
-10.2109 237.617 -304.707
-7.61165 238.115 -304.93
-47.6884 234.25 -304.558
-44.8369 233.576 -304.712
-10.597 238.517 -304.353
-8.31266 238.502 -304.741
-11.336 238.199 -303.453
-9.22653 238.888 -304.187
-48.1512 233.447 -304.663
-7.69874 238.214 -304.384
-47.076 235.205 -303.849
-44.4144 234.389 -304.046
-11.4237 238.559 -303.132
-9.83251 238.997 -303.86
-46.4419 235.885 -303.738
-43.8862 235.474 -303.718
-43.3865 235.982 -303.348
-43.2125 236.321 -303.234
-10.92 238.777 -302.952
-10.0564 238.942 -303.169
-11.767 238.265 -302.905
-9.43879 238.937 -303.471
-46.2323 236.036 -303.189
-43.0107 236.381 -302.936
-45.5441 236.234 -302.857
-44.6953 236.31 -302.223
-43.7607 236.372 -302.39
-43.1804 236.437 -302.743
-46.6809 235.689 -303.217
-44.7599 236.149 -301.531
-44.1005 236.195 -301.633
-11.1376 229.578 -310.188
-10.2274 229.923 -310.126
-12.9548 228.454 -310.274
-12.1607 228.529 -310.412
-11.3443 228.856 -310.338
-11.5074 229.83 -310.05
-9.48153 230.266 -310.061
-45.3817 227.124 -309.651
-43.875 227.092 -309.992
-42.7684 227.163 -310.046
-11.5203 230.095 -309.711
-9.11591 230.856 -309.994
-8.07305 230.938 -309.932
-7.36739 231.523 -309.894
-42.9238 226.433 -310.195
-42.0111 226.581 -310.055
-41.1634 226.308 -309.961
-40.5934 226.288 -309.615
-12.1464 229.25 -310.019
-8.61355 230.259 -309.949
-7.72994 230.243 -309.751
-45.8557 227.869 -309.621
-42.2222 227.374 -309.612
-11.1425 230.542 -309.314
-6.58108 231.834 -309.553
-46.3195 227.985 -309.469
-42.7849 228.026 -309.343
-10.4848 231.058 -309.12
-6.26954 232.79 -309.356
-46.4006 227.383 -309.308
-41.3402 226.744 -309.6
-11.6147 230.177 -309.168
-46.768 228.103 -309.209
-43.362 228.698 -309.095
-9.76656 231.833 -308.707
-5.70015 233.052 -308.75
-47.3497 228.232 -308.769
-9.15102 232.864 -308.567
-47.1266 227.539 -308.893
-42.8284 228.208 -308.633
-47.8053 229.062 -308.267
-43.6935 229.291 -308.605
-9.06513 233.278 -307.901
-5.39803 233.584 -307.971
-43.9242 229.614 -307.798
-48.4138 229.834 -307.194
-44.4847 230.574 -307.717
-8.83228 234.381 -307.407
-5.31412 234.256 -307.03
-48.7678 229.029 -306.879
-48.6555 230.819 -306.058
-44.7719 231.233 -306.75
-8.98006 235.126 -306.348
-5.3608 234.822 -306.165
-48.8869 229.704 -306.211
-48.601 231.718 -305.44
-44.9293 231.914 -305.768
-9.26278 235.767 -305.496
-5.68379 235.624 -305.445
-6.04159 236.339 -304.732
-48.6215 232.077 -304.725
-44.8883 232.519 -304.842
-9.68464 236.325 -304.744
-6.56189 237.002 -304.787
-10.2139 236.69 -304.031
-6.22037 236.608 -303.945
-48.4512 232.826 -303.999
-44.6582 233.127 -304.022
-10.7946 237.632 -303.898
-7.23726 237.787 -304.393
-48.1059 233.703 -303.948
-11.8813 237.665 -302.721
-11.3214 237.508 -303.271
-7.75689 238.138 -303.532
-47.7315 234.309 -303.231
-44.2432 233.699 -303.213
-12.0506 238.05 -302.415
-8.71164 238.659 -303.457
-43.7984 234.82 -303.165
-43.4177 235.583 -303.129
-43.0894 236.028 -302.892
-11.6586 238.449 -302.562
-11.2078 238.552 -302.052
-10.224 238.759 -302.212
-9.33359 238.763 -302.696
-48.2161 233.509 -303.265
-47.0281 235.168 -302.7
-42.9848 236.254 -302.656
-46.3064 235.809 -302.56
-45.5397 235.992 -301.834
-43.1728 236.156 -302.267
-43.0432 235.911 -302.402
-11.3763 238.304 -301.355
-10.655 238.534 -301.441
-45.0968 235.922 -301.122
-43.4803 236.019 -301.678
-44.3698 235.902 -300.912
-43.7554 235.918 -301.126
-45.6762 235.649 -301.051
-30.1466 217.056 -317.633
-22.846 218.323 -317.645
-22.0105 218.455 -317.648
-33.0059 217.647 -317.21
-23.1578 218.817 -317.195
-22.4048 218.861 -317.319
-21.4583 219.148 -317.138
-20.5069 219.356 -317.006
-34.0365 219.107 -315.993
-23.4047 219.147 -316.724
-22.5353 219.344 -316.741
-34.7583 219.227 -315.687
-34.1349 219.523 -315.469
-33.3052 219.544 -315.499
-32.5165 219.65 -315.239
-13.681 227.768 -310.312
-12.673 227.893 -310.545
-11.417 227.913 -310.512
-41.614 224.496 -310.347
-40.2414 224.434 -310.238
-15.536 226.499 -310.178
-14.6953 226.965 -310.256
-13.3739 227.144 -310.592
-12.19 227.238 -310.683
-11.439 227.23 -310.641
-13.6218 228.239 -310.002
-10.61 228.432 -310.319
-42.9615 225.838 -310.286
-42.3521 225.88 -310.297
-41.4495 225.884 -310.217
-40.534 225.791 -309.973
-13.1015 228.722 -309.894
-10.2612 229.106 -310.185
-9.1306 229.545 -309.95
-7.9393 229.646 -309.672
-42.9193 225.078 -310.287
-41.8427 225.327 -310.346
-40.856 225.193 -310.241
-39.5121 225.033 -309.882
-38.6572 224.888 -309.624
-9.86905 228.416 -310.124
-43.6188 225.914 -310.129
-39.7654 225.744 -309.497
-12.8533 229.035 -309.393
-7.20751 229.866 -309.509
-46.2918 226.338 -309.143
-44.8805 225.904 -309.711
-40.1377 226.196 -309.095
-12.1438 229.665 -309.317
-6.75308 230.549 -309.435
-44.0886 225.111 -310.01
-6.72404 229.778 -309.3
-46.9313 226.958 -308.933
-40.7902 226.597 -309.193
-11.8485 229.893 -308.639
-5.81347 231.171 -309
-47.339 227.142 -308.68
-41.4363 226.996 -308.82
-11.1202 230.528 -308.656
-10.4374 231.121 -308.455
-5.69378 232.093 -308.903
-47.3727 226.577 -308.523
-4.91675 231.323 -308.246
-4.16424 231.068 -307.608
-47.813 227.647 -308.273
-42.2676 227.647 -308.725
-10.0219 231.475 -307.852
-5.11886 232.532 -308.106
-42.6323 227.881 -307.856
-9.46709 232.356 -307.888
-48.2245 226.703 -307.83
-4.38679 232.026 -307.258
-48.413 228.565 -307.541
-43.3036 228.698 -307.987
-9.19642 232.968 -307.151
-4.89261 233.227 -307.155
-48.865 228.326 -306.965
-43.7571 229.068 -306.881
-48.6207 227.607 -307.412
-4.42489 232.976 -306.242
-49.1212 228.781 -306.257
-44.2891 230.099 -306.813
-9.03806 233.688 -306.342
-4.93936 234.023 -306.041
-4.56877 233.609 -305.408
-49.2554 229.495 -305.23
-44.6169 230.677 -305.845
-9.06546 234.381 -305.482
-5.2401 234.828 -305.416
-48.9711 230.295 -305.405
-48.8575 231.153 -304.705
-44.8046 231.291 -304.933
-9.26513 235.024 -304.71
-5.36642 235.187 -304.698
-49.1178 230.308 -304.669
-48.7327 231.936 -303.994
-44.7973 231.894 -304.079
-9.6304 235.543 -304.011
-5.73409 235.855 -304.073
-10.1357 235.876 -303.354
-6.09265 236.361 -303.035
-48.682 232.222 -303.276
-44.5819 232.47 -303.25
-10.8075 236.824 -303.357
-6.81965 237.263 -303.235
-12.1945 236.774 -301.978
-11.4651 236.862 -302.72
-7.46634 237.807 -302.504
-48.437 232.878 -302.675
-44.1815 232.971 -302.414
-12.3746 237.502 -301.969
-8.29684 238.236 -302.214
-48.0566 233.696 -302.503
-43.7308 234.143 -302.386
-43.2948 235.27 -302.464
-12.0397 237.998 -301.677
-9.31441 238.554 -301.76
-12.6989 236.908 -301.49
-7.60146 237.781 -301.882
-47.4702 234.329 -301.8
-43.1629 235.503 -301.72
-11.7487 237.885 -300.804
-9.94611 238.598 -301.449
-46.4767 235.304 -301.561
-10.9226 238.16 -300.757
-10.0952 238.339 -300.864
-9.46915 238.397 -301.087
-46.0054 235.13 -300.471
-43.334 235.519 -300.98
-45.0305 235.493 -300.388
-44.2075 235.494 -300.225
-43.7131 235.559 -300.52
-29.6857 248.982 -287.866
-30.0177 249.266 -287.612
-29.7839 249.442 -287.403
-35.7222 214.605 -318.59
-34.7109 214.614 -318.702
-27.455 215.675 -318.498
-26.1645 215.647 -318.627
-25.0412 215.661 -318.716
-24.037 215.756 -318.741
-30.3299 216.853 -317.735
-23.3149 217.676 -317.93
-22.4496 217.732 -317.994
-36.1041 215.508 -317.993
-34.901 215.482 -318.195
-33.6919 215.458 -318.314
-32.3126 215.739 -318.235
-31.2481 215.749 -318.278
-30.1132 216.26 -318.037
-28.6308 216.207 -318.088
-27.469 216.605 -317.897
-26.4672 216.528 -318.065
-25.3284 216.488 -318.252
-24.3863 216.391 -318.422
-23.222 216.718 -318.366
-21.7057 217.125 -318.247
-20.3716 217.233 -318.143
-19.0874 217.391 -317.989
-17.8264 217.503 -317.868
-16.6803 217.613 -317.764
-15.7299 217.724 -317.653
-30.3631 217.128 -317.54
-29.9665 216.932 -317.682
-23.7295 218.197 -317.52
-21.6495 217.983 -317.908
-33.1436 217.482 -317.282
-29.9997 217.207 -317.487
-21.299 218.505 -317.628
-20.5949 218.794 -317.406
-36.9951 216.05 -317.419
-35.9853 216.435 -317.459
-35.0648 216.421 -317.637
-34.0824 216.366 -317.786
-32.8542 216.862 -317.589
-31.1537 216.774 -317.691
-29.3367 217.157 -317.421
-28.0277 217.194 -317.37
-26.8249 217.316 -317.388
-25.6077 217.333 -317.623
-24.3315 217.295 -317.935
-20.8603 218.017 -317.84
-19.6778 218.386 -317.517
-18.2751 218.449 -317.334
-17.0191 218.448 -317.243
-15.9647 218.432 -317.174
-15.1333 218.354 -317.134
-33.238 217.659 -317.179
-32.7504 217.548 -317.236
-23.9521 218.742 -316.953
-19.8931 219.178 -317.082
-34.3661 218.481 -316.453
-32.9232 217.82 -317.048
-20.7334 219.782 -316.539
-19.9365 219.661 -316.678
-37.3315 216.873 -316.679
-36.306 217.05 -316.947
-35.3487 217.127 -317.147
-33.9018 217.601 -317.076
-31.8787 217.822 -316.941
-30.2806 217.614 -317.055
-29.2889 217.86 -316.719
-28.5385 217.74 -316.811
-27.4451 217.961 -316.52
-25.9613 218.103 -316.721
-24.7247 218.115 -317.21
-18.8748 219.513 -316.636
-17.4011 219.342 -316.62
-16.2465 219.234 -316.572
-15.2819 219.085 -316.539
-34.7955 218.796 -316.126
-33.6708 218.599 -316.447
-23.8851 219.092 -316.529
-21.6242 219.733 -316.482
-35.3691 218.801 -315.875
-33.256 219.062 -316.069
-32.5252 219.23 -315.774
-23.3817 219.456 -315.994
-22.2115 219.847 -316.049
-37.4922 217.591 -315.933
-36.6134 217.645 -316.342
-35.4032 218.04 -316.469
-32.8227 218.469 -316.506
-31.717 218.78 -316.036
-30.6822 218.413 -316.227
-29.7206 218.24 -316.295
-28.6799 218.325 -315.956
-24.6972 218.796 -316.289
-21.1345 220.221 -315.762
-19.7647 220.216 -315.965
-18.6103 220.349 -315.772
-17.6768 220.148 -315.908
-16.5777 220.005 -315.888
-15.5421 219.84 -315.832
-35.4279 219.133 -315.389
-31.7111 219.386 -315.195
-34.7612 219.522 -315.094
-33.8598 219.76 -314.939
-32.97 219.836 -314.855
-32.2617 219.762 -314.808
-37.6972 218.102 -315.165
-36.3884 218.471 -315.563
-30.8701 218.955 -315.502
-29.8112 218.715 -315.485
-23.4041 219.654 -315.056
-22.26 220.124 -315.11
-21.0959 220.585 -314.928
-20.1332 220.706 -315.086
-18.9807 220.772 -315.117
-17.8615 220.726 -315.137
-16.9494 220.553 -315.275
-15.9285 220.535 -315.006
-37.1097 218.713 -314.568
-35.8103 219.244 -314.604
-34.5951 219.686 -314.336
-33.5166 219.841 -314.258
-32.5802 219.824 -314.305
-21.3953 220.551 -314.304
-20.3916 220.862 -314.316
-19.3393 221.031 -314.355
-18.2014 221.071 -314.317
-16.8854 220.959 -314.366
-42.0615 223.457 -310.277
-40.6634 223.658 -310.286
-15.8423 226.002 -310.054
-15.119 226.28 -310.332
-14.0754 226.25 -310.543
-12.711 226.48 -310.707
-11.3932 226.494 -310.635
-13.1279 225.671 -310.637
-12.0309 225.851 -310.688
-11.3613 225.881 -310.653
-42.6546 224.242 -310.315
-39.7072 223.826 -310.205
-15.9238 226.373 -310.022
-10.7008 227.096 -310.457
-43.2015 224.392 -310.26
-39.1832 224.238 -310.047
-38.5372 224.515 -309.756
-15.7584 226.698 -309.812
-15.1211 227.141 -309.907
-9.95809 227.63 -310.159
-43.3447 223.802 -310.151
-39.0257 223.637 -310.049
-16.2519 226.157 -309.731
-9.96368 226.92 -310.226
-43.7526 224.475 -310.111
-38.1918 224.705 -309.469
-14.4589 227.634 -309.718
-9.1974 228.035 -309.868
-44.3201 224.567 -309.932
-38.5916 225.086 -309.122
-13.63 228.386 -309.449
-9.15439 228.679 -309.878
-7.95989 228.766 -309.452
-6.90777 229.208 -309.183
-44.4213 223.955 -309.823
-37.7735 224.587 -309.165
-16.1274 226.595 -309.307
-8.33898 228.042 -309.495
-7.50428 228.006 -309.097
-44.8631 224.775 -309.686
-39.4261 225.729 -308.92
-13.2413 228.638 -308.677
-6.09464 229.593 -308.924
-46.999 225.553 -308.575
-45.9151 225.041 -309.151
-39.8411 225.989 -308.461
-12.515 229.302 -308.692
-5.30642 230.21 -308.564
-4.30726 230.39 -307.878
-45.3421 224.135 -309.386
-5.23857 229.274 -308.359
-47.8038 225.899 -308.073
-40.5898 226.472 -308.59
-12.0606 229.49 -307.964
-3.7909 230.58 -307.4
-48.5763 225.827 -307.404
-41.1267 226.609 -307.878
-11.3629 230.079 -307.87
-10.658 230.749 -307.84
-3.39932 230.463 -306.903
-48.956 226.798 -307.103
-41.922 227.209 -307.88
-10.1594 231.055 -307.1
-3.74261 231.181 -306.977
-42.4757 227.331 -306.921
-9.62509 231.902 -307.092
-49.2577 226.2 -306.83
-3.29804 231.063 -306.257
-49.2551 227.742 -306.503
-43.1571 228.135 -306.899
-9.30579 232.418 -306.281
-3.79686 232.015 -306.1
-43.7129 228.465 -305.912
-49.5746 226.806 -306.378
-3.28921 231.592 -305.548
-49.5534 228.454 -305.486
-44.2126 229.516 -305.876
-9.10291 233.027 -305.417
-4.14949 232.98 -305.259
-4.47804 233.654 -304.703
-49.8667 227.508 -305.584
-49.6737 229.013 -304.429
-44.5801 230.086 -304.976
-9.05753 233.724 -304.625
-4.93129 234.387 -304.676
-50.0025 228.197 -304.656
-4.61904 233.971 -304.006
-49.3604 229.927 -303.921
-44.7722 230.672 -304.156
-9.2031 234.353 -303.938
-5.30906 235.128 -303.895
-49.0941 230.668 -303.967
-48.9141 231.361 -303.239
-44.7562 231.216 -303.328
-9.5337 234.815 -303.291
-5.56426 235.523 -302.9
-10.0118 235.108 -302.683
-5.95389 236.054 -302.203
-49.1757 230.584 -303.244
-48.705 232.063 -302.5
-44.5327 231.752 -302.486
-10.7564 236.011 -302.708
-6.44604 236.662 -302.091
-12.6799 236.157 -301.081
-12.0972 235.934 -301.493
-11.4801 236.026 -302.065
-6.16284 236.135 -301.498
-48.4943 232.408 -301.651
-44.1166 232.202 -301.642
-12.9195 236.633 -300.944
-7.09782 237.325 -301.913
-48.089 233.305 -301.613
-43.6545 233.329 -301.533
-43.2778 234.463 -301.546
-12.6799 237.244 -301.243
-12.4177 237.431 -300.759
-7.7615 237.527 -301.132
-47.5248 233.627 -300.485
-43.0521 234.72 -300.752
-12.0439 237.426 -300.236
-8.74748 238.103 -301.096
-46.8459 234.565 -300.634
-11.2353 237.579 -300.004
-10.2331 237.866 -300.161
-9.38127 238.005 -300.47
-12.4698 237.02 -300.095
-46.2893 234.57 -299.859
-43.1932 234.974 -300.193
-45.3438 234.754 -299.53
-44.3376 235.028 -299.631
-43.6371 235.088 -299.84
-46.8275 234.063 -299.81
-29.3257 246.732 -288.909
-29.6388 248.529 -288.22
-29.62 247.744 -288.521
-29.8785 248.681 -288.111
-29.4017 248.291 -288.092
-30.2085 248.807 -287.807
-30.0926 248.13 -288.226
-30.4408 249.25 -287.126
-29.427 248.983 -287.366
-30.0679 249.702 -287.006
-29.7308 249.626 -286.896
-30.3821 249.833 -286.492
-30.0023 249.983 -286.252
-30.4669 250.094 -285.792
-27.6697 206.084 -326.251
-26.3655 206.096 -326.364
-25.1302 206.167 -326.394
-23.8893 206.255 -326.369
-22.6298 206.337 -326.303
-21.4696 206.478 -326.212
-30.1727 206.709 -325.441
-28.7583 206.597 -325.755
-27.6362 206.962 -325.647
-26.6784 206.928 -325.778
-25.5142 206.995 -325.834
-24.3119 207.097 -325.843
-23.0924 207.208 -325.818
-21.8684 207.318 -325.773
-20.595 207.381 -325.732
-19.4115 207.697 -325.522
-31.34 207.332 -324.743
-30.1276 207.611 -324.753
-29.1503 207.511 -324.978
-28.0077 207.584 -325.069
-26.9007 207.713 -325.093
-25.7753 207.812 -325.129
-24.5971 207.931 -325.151
-23.3983 208.059 -325.154
-22.1881 208.189 -325.138
-20.96 208.315 -325.102
-19.7264 208.462 -325.023
-18.485 208.552 -324.923
-17.3611 208.834 -324.612
-32.5904 208.025 -323.932
-31.3699 208.328 -323.928
-30.4288 208.277 -324.122
-29.3626 208.315 -324.231
-28.2787 208.354 -324.315
-27.1556 208.463 -324.331
-25.9976 208.613 -324.316
-24.803 208.759 -324.323
-23.5967 208.9 -324.348
-22.3923 209.044 -324.361
-21.1827 209.191 -324.354
-19.9614 209.339 -324.318
-18.7343 209.473 -324.246
-17.5507 209.584 -324.114
-16.601 209.535 -323.997
-33.7996 208.741 -323.095
-32.6088 209.049 -323.078
-31.6744 209.013 -323.266
-30.6104 209.07 -323.367
-29.5475 209.089 -323.465
-28.4702 209.122 -323.527
-27.3936 209.195 -323.541
-26.2529 209.386 -323.448
-25.0061 209.601 -323.379
-23.7429 209.744 -323.428
-22.5181 209.888 -323.48
-21.3115 210.043 -323.507
-20.1032 210.206 -323.505
-18.8831 210.365 -323.469
-17.6522 210.493 -323.387
-16.3826 210.533 -323.245
-34.9045 209.399 -322.321
-33.8313 209.75 -322.253
-32.9125 209.734 -322.421
-31.8551 209.818 -322.506
-30.7761 209.868 -322.591
-29.6673 209.897 -322.664
-28.5943 209.89 -322.737
-27.5406 209.923 -322.75
-26.5999 209.962 -322.77
-25.3286 210.531 -322.259
-23.8834 210.621 -322.417
-22.6058 210.737 -322.532
-21.387 210.884 -322.603
-20.1841 211.054 -322.635
-18.976 211.233 -322.631
-17.7547 211.397 -322.586
-16.523 211.515 -322.486
-15.3081 211.591 -322.292
-35.5295 210.429 -321.377
-34.2291 210.44 -321.602
-33.1193 210.536 -321.689
-32.0382 210.613 -321.76
-30.9207 210.693 -321.809
-29.7639 210.743 -321.853
-28.5905 210.726 -321.917
-27.6742 210.583 -322.069
-26.4788 210.801 -321.848
-23.9741 211.563 -321.353
-22.6679 211.611 -321.57
-21.4403 211.726 -321.691
-20.238 211.888 -321.754
-19.0372 212.078 -321.775
-17.8263 212.269 -321.758
-16.6057 212.426 -321.698
-15.4054 212.503 -321.592
-14.4111 212.438 -321.484
-36.6732 211.097 -320.645
-35.4519 211.402 -320.663
-34.4723 211.307 -320.873
-33.3353 211.343 -320.984
-32.2063 211.43 -321.036
-31.0739 211.521 -321.066
-29.9062 211.605 -321.081
-28.648 211.651 -321.094
-27.1587 211.574 -321.146
-23.8121 212.595 -320.429
-22.6759 212.519 -320.683
-21.4879 212.58 -320.831
-20.2945 212.719 -320.913
-19.097 212.909 -320.948
-17.8898 213.12 -320.943
-16.6712 213.312 -320.902
-15.4416 213.43 -320.822
-14.1682 213.405 -320.7
-37.7869 211.679 -319.959
-36.8144 212.067 -319.967
-35.8183 212.114 -320.109
-34.6536 212.169 -320.219
-33.5192 212.185 -320.318
-32.3741 212.26 -320.363
-31.23 212.354 -320.384
-30.1013 212.434 -320.4
-28.9158 212.56 -320.371
-27.5658 212.667 -320.326
-26.081 212.74 -320.244
-24.6506 213.076 -320.032
-23.5467 213.508 -319.835
-22.6556 213.423 -319.973
-21.5504 213.447 -320.09
-20.3805 213.558 -320.162
-19.187 213.735 -320.192
-17.9767 213.959 -320.18
-16.7538 214.185 -320.133
-15.5313 214.348 -320.06
-14.3116 214.395 -319.95
-13.0811 214.301 -319.761
-36.3388 213.851 -318.938
-35.43 213.825 -319.082
-28.0216 214.719 -319.015
-26.9956 214.716 -319.077
-25.7676 214.765 -319.113
-24.6187 214.908 -319.091
-38.3561 212.638 -319.169
-37.3556 212.555 -319.528
-36.3071 212.977 -319.472
-34.9023 213.107 -319.569
-33.7001 213.037 -319.716
-32.5579 213.1 -319.756
-31.403 213.203 -319.765
-30.2524 213.281 -319.785
-29.2787 213.251 -319.858
-28.0584 213.706 -319.625
-26.6059 213.751 -319.638
-25.2605 213.909 -319.57
-23.9261 214.257 -319.42
-22.7713 214.274 -319.455
-21.6825 214.314 -319.503
-20.5277 214.41 -319.534
-19.3364 214.567 -319.539
-18.1242 214.787 -319.506
-16.8807 215.059 -319.421
-15.639 215.271 -319.321
-14.4466 215.34 -319.226
-13.3126 215.279 -319.097
-12.2962 215.096 -318.902
-36.7846 214.485 -318.47
-34.5619 213.953 -319.09
-28.5493 215.219 -318.693
-23.7527 215.137 -319.016
-33.9627 214.497 -318.824
-33.0717 214.712 -318.758
-31.9559 214.871 -318.728
-30.811 215.059 -318.679
-29.595 215.204 -318.651
-23.2593 215.73 -318.782
-22.3605 215.992 -318.695
-21.1531 216.174 -318.623
-19.909 216.314 -318.541
-18.6697 216.468 -318.449
-17.4648 216.651 -318.348
-16.3384 216.893 -318.202
-39.2297 213.199 -318.45
-38.3679 213.555 -318.6
-37.3706 213.483 -318.94
-33.82 213.851 -319.202
-32.7755 213.925 -319.224
-31.6393 214.053 -319.213
-30.453 214.177 -319.205
-29.1507 214.231 -319.243
-22.9854 215.08 -319.063
-21.935 215.169 -319.053
-20.7729 215.281 -319.031
-19.5694 215.422 -318.996
-18.3552 215.611 -318.939
-17.1291 215.873 -318.832
-15.7796 216.286 -318.578
-14.5639 216.303 -318.494
-13.461 216.218 -318.392
-12.4597 215.988 -318.284
-37.1452 215.148 -317.976
-15.4721 217.212 -317.966
-37.8067 215.315 -317.647
-15.0659 217.771 -317.559
-39.5571 214.076 -317.677
-38.8015 214.047 -318.105
-37.8941 214.422 -318.201
-14.6496 217.331 -317.757
-13.5928 217.188 -317.624
-12.5928 216.906 -317.542
-38.0749 215.988 -317.035
-14.5754 218.134 -317.179
-39.7431 214.961 -316.888
-38.7457 214.964 -317.472
-13.7815 218.239 -316.77
-12.7432 217.852 -316.683
24.7008 221.704 -315.582
-38.2956 216.763 -316.264
-14.4877 218.814 -316.558
-26.6105 218.376 -315.875
-25.7634 218.562 -315.957
-39.8819 215.779 -316.075
-39.034 215.872 -316.597
-13.8232 219.234 -315.77
-12.9152 218.802 -315.68
22.6191 222.291 -314.827
22.9222 222.315 -314.945
-38.412 217.427 -315.491
-27.5245 218.397 -315.41
-25.3153 218.776 -315.493
-14.6393 219.578 -315.823
-28.3428 218.573 -315.184
-24.3995 219.137 -315.196
-39.9482 216.429 -315.307
-39.1714 216.64 -315.763
-26.7888 218.44 -315.255
-26.1443 218.548 -315.285
-14.1243 219.912 -315.077
-13.272 219.729 -314.615
-38.401 217.834 -314.972
-28.9491 218.684 -315.201
-23.7934 219.393 -314.468
-14.8881 220.24 -315.046
-38.175 218.237 -314.414
-30.6255 219.102 -314.563
-29.3983 218.806 -314.675
-22.948 219.835 -314.41
-22.1759 220.204 -314.231
-15.1506 220.691 -314.393
-39.1611 217.362 -314.808
-28.6704 218.677 -314.748
-14.2268 220.47 -314.079
-37.5706 218.723 -314.042
-31.7596 219.59 -314.41
-21.5603 220.292 -313.615
-15.8039 220.92 -314.164
-36.8757 219.086 -313.576
-35.4612 219.513 -313.603
-34.2394 219.645 -313.43
-33.0427 219.66 -313.62
-32.1987 219.615 -313.855
-20.6077 220.702 -313.598
-19.5806 221.019 -313.607
-18.6588 221.175 -313.674
-17.5062 221.211 -313.243
-16.1159 221.106 -313.398
-38.024 218.596 -313.616
-15.1063 220.913 -313.648
-14.4451 220.841 -313.227
-36.9406 219.166 -312.63
-36.1084 219.378 -312.807
-35.1617 219.522 -312.826
-17.8368 221.243 -312.586
-13.5099 224.75 -310.427
-12.3022 225.061 -310.556
-11.3502 225.333 -310.559
-14.1037 225.449 -310.494
-10.7457 225.729 -310.494
-43.1165 222.889 -310.09
-42.0728 222.514 -310.205
-40.8562 222.619 -310.216
-39.536 223.043 -310.093
-16.4427 225.505 -309.48
-15.9537 225.457 -309.888
-15.163 225.5 -310.218
-9.99761 226.157 -310.24
-43.7125 221.465 -309.904
-42.8096 221.837 -310.074
-41.482 221.801 -310.191
-40.5379 221.788 -310.159
-14.5313 224.923 -310.309
-10.1228 225.489 -310.3
-43.9648 223.275 -309.929
-38.5989 223.169 -309.874
-16.638 225.878 -309.26
-9.20557 226.67 -309.886
-44.4602 223.277 -309.754
-38.2886 223.763 -309.752
-37.7065 224.172 -309.37
-16.401 226.293 -309.356
-15.3272 227.138 -309.548
-8.57792 227.264 -309.554
-7.59966 227.412 -309.052
-44.2999 222.498 -309.712
-37.9812 223.046 -309.599
-8.27641 226.383 -309.413
-45.0005 223.413 -309.494
-37.2878 224.246 -308.98
-16.3914 226.326 -308.867
-15.7909 226.849 -309.37
-14.9764 227.331 -309.073
-6.96702 227.605 -308.744
-45.5612 223.641 -309.21
-38.0395 224.808 -308.238
-37.4408 224.441 -308.611
-15.9121 226.691 -308.866
-14.1849 227.824 -308.672
-6.6893 228.2 -308.746
-5.83406 228.735 -308.508
-45.6898 222.994 -309.039
-36.9252 224.012 -308.64
-15.4918 227.009 -309.046
-6.34339 227.451 -308.355
-46.0628 224.016 -308.928
-38.9678 225.343 -308.186
-13.3413 228.19 -307.678
-4.85416 228.59 -307.875
-46.7467 224.633 -308.564
-39.7228 225.743 -307.881
-12.6663 228.941 -307.97
-4.36657 229.428 -307.792
-3.70732 229.962 -307.353
-46.9166 223.64 -308.227
-38.3453 224.926 -307.89
-47.6807 224.917 -307.932
-40.3527 226.131 -307.887
-12.21 229.178 -307.532
-3.27358 229.854 -306.826
-49.2678 225.506 -306.696
-48.5773 224.829 -307.14
-40.832 225.986 -307.003
-11.581 229.496 -306.989
-10.7694 230.335 -307.072
-47.9184 224.031 -307.459
-40.0851 225.729 -307.386
-12.4453 228.773 -307.172
-49.6953 226.107 -306.332
-41.7161 226.645 -306.979
-10.2272 230.692 -306.466
-3.03146 230.267 -306.271
-42.3458 226.674 -306.064
-9.74048 231.395 -306.33
-11.1281 229.364 -305.84
-10.6448 230.084 -306.199
-50.1569 226.527 -305.604
-43.1155 227.452 -305.836
-9.40685 231.788 -305.45
-2.89568 230.894 -305.42
-43.7314 227.943 -305.143
-3.09788 231.63 -304.893
-50.4963 225.949 -305.299
-10.3156 229.991 -305.183
-9.9447 230.786 -305.699
-50.4275 227.32 -304.591
-44.2197 228.869 -304.895
-9.12476 232.357 -304.432
-3.58621 232.313 -304.835
-50.6943 226.46 -304.791
-44.0006 227.988 -304.442
-9.56892 230.991 -304.667
-3.19001 231.981 -304.236
-50.3196 228.134 -303.753
-44.6012 229.634 -304.239
-9.02901 233.29 -303.878
-4.16377 233.277 -304.088
-50.0012 228.682 -303.882
-4.53776 233.883 -303.351
-49.7747 229.272 -303.23
-44.7168 229.977 -303.464
-9.15446 233.68 -303.21
-5.00349 234.592 -303.196
-50.1312 228.695 -303.233
-4.6862 234.071 -302.606
-49.3741 230.12 -302.566
-44.6871 230.497 -302.592
-9.46318 234.174 -302.614
-5.32206 235.059 -302.391
-49.0949 230.83 -302.512
-9.85565 234.474 -302.178
-9.52074 233.8 -302.052
-48.8184 231.41 -301.719
-44.4346 231.026 -301.719
-10.6036 235.069 -301.968
-5.66604 235.461 -301.729
-12.7774 235.336 -300.253
-12.2328 235.309 -300.819
-11.4917 235.222 -301.356
-6.14884 235.746 -300.761
-49.1236 230.649 -301.826
-48.4698 231.98 -300.827
-44.0097 231.497 -300.936
-12.9958 235.996 -300.337
-6.81224 236.62 -300.989
-48.1364 232.731 -300.696
-43.5596 232.449 -300.774
-43.0118 233.495 -300.467
-12.846 236.686 -300.383
-7.64437 236.753 -300.047
-43.5487 231.737 -300.307
-47.7271 232.835 -299.84
-42.6842 234.037 -299.701
-12.5783 236.415 -299.561
-8.5322 237.487 -300.232
-11.9098 236.93 -299.533
-11.1202 237.061 -299.29
-10.3723 237.279 -299.43
-9.41853 237.406 -299.692
-42.1257 233.412 -298.967
-47.0065 233.266 -299.221
-43.0709 234.549 -299.525
-46.0586 233.998 -299.048
-45.0881 234.156 -298.728
-44.3082 234.388 -298.894
-43.5041 234.504 -299.155
-29.0092 244.052 -289.811
-29.3162 246.143 -289.157
-29.3246 245.199 -289.402
-29.641 246.54 -288.967
-29.0548 245.908 -289.072
-29.8751 245.615 -289.079
-29.9592 247.368 -288.592
-29.0901 247.029 -288.479
-30.2932 247.483 -288.273
-30.1369 246.615 -288.639
-30.5427 248.194 -287.663
-29.0338 247.888 -287.713