<VTKFile type="UnstructuredGrid" version="0.1" byte_order="BigEndian">
  <UnstructuredGrid>
    <Piece NumberOfPoints="14644" NumberOfCells="29284">
      <PointData>
        <DataArray type="Float64" Name="position" NumberOfComponents="3" format="ascii">
-44.7306 210.321 -279.487
-43.7716 212.302 -277.425
-44.4381 207.951 -281.214
-44.8461 208.431 -280.874
-44.4766 208.574 -280.725
-44.8041 210.079 -279.691
-45.1577 209.073 -280.264
-44.7417 209.354 -280.166
-44.8621 210.317 -279.491
-44.4851 209.941 -279.512
-44.7159 210.494 -279.055
-45.1301 209.924 -279.534
-43.7455 212.161 -277.501
-44.4742 211.262 -278.06
-43.9983 212.037 -277.583
-43.4987 212.246 -277.168
-43.8683 212.328 -277.225
-44.3945 211.912 -277.371
-43.4902 212.524 -276.662
-42.9565 212.614 -276.177
-44.3972 207.494 -281.502
-44.3785 206.929 -281.628
-44.659 207.64 -281.409
-44.1511 207.314 -281.373
-45.0424 207.729 -281.172
-44.8575 207.062 -281.506
-45.3576 208.261 -280.614
-44.1414 207.963 -280.871
-45.6158 209.011 -279.814
-44.2281 208.847 -280.119
-5.90722 212.942 -278.208
-45.7778 209.735 -278.843
-44.0833 209.419 -279.285
-45.1854 210.574 -278.552
-6.06586 213.147 -278.011
-45.1697 211.118 -277.528
-44.0339 210.383 -278.429
-43.7357 211.622 -277.61
-45.6845 210.377 -278.069
-7.48342 214.121 -276.435
-44.7223 211.83 -276.751
-43.0501 211.736 -276.884
-44.077 212.332 -276.83
-42.8978 212.33 -276.497
-43.7881 212.536 -276.462
-42.3 212.47 -275.76
-43.4132 212.616 -275.929
-42.7818 212.682 -275.791
-44.1784 212.314 -276.257
-43.4643 212.59 -275.18
-42.5435 212.684 -275.119
-41.6486 212.712 -274.457
-44.2022 206.212 -281.745
-44.0274 205.265 -281.792
-43.1555 204.6 -281.823
-44.5923 206.314 -281.715
-43.8429 206.303 -281.492
-45.0018 206.565 -281.538
-45.0765 205.788 -281.558
-45.4341 207.041 -281.041
-43.7922 207.059 -280.995
-45.8422 205.954 -280.986
-5.31114 209.718 -279.839
-45.9143 207.959 -280.108
-43.8317 207.761 -280.335
-5.92056 212.632 -278.318
-46.2004 206.828 -280.274
-5.17434 211.756 -278.586
-46.1657 208.716 -279.209
-43.8543 208.44 -279.525
-6.091 212.945 -278.174
-5.5857 212.551 -278.252
-46.5004 207.66 -279.378
-5.12033 212.322 -278.123
-46.2928 209.233 -278.442
-43.7978 209.102 -278.628
-6.30504 213.098 -277.804
-5.81672 213.088 -277.843
-7.3513 213.847 -276.587
-6.14038 213.301 -277.581
-46.6391 208.415 -278.455
-46.1044 209.827 -278.048
-43.5549 209.679 -277.664
-7.60323 214.076 -276.399
-7.20119 214.035 -276.366
-45.9974 210.292 -277.249
-43.3578 210.826 -277.316
-7.6793 214.191 -276.073
-46.5493 209.239 -277.538
-6.66729 213.483 -277.008
-45.5373 211.055 -276.454
-42.6631 211.011 -276.413
-42.214 211.847 -276.026
-46.1511 210.354 -276.429
-8.21201 214.153 -275.653
-7.98625 214.329 -275.482
-44.8579 211.799 -275.897
-41.6162 212.162 -275.471
-44.15 212.303 -275.48
-41.3187 212.403 -274.911
-41.1579 212.068 -275.13
-43.9783 212.343 -274.679
-40.7737 212.567 -274.096
-43.2073 212.609 -274.572
-42.3724 212.718 -274.093
-41.4286 212.765 -273.927
-40.1837 212.365 -273.945
-42.5209 212.601 -273.356
-41.6794 212.724 -273.421
-38.6977 202.348 -283.232
-44.374 204.188 -281.925
-43.2008 203.94 -282.104
-41.9843 203.355 -282.325
-41.1515 203.146 -282.42
-40.6804 203.095 -282.342
-44.7987 204.945 -281.777
-42.4148 204.087 -281.802
-45.199 205.074 -281.654
-43.0384 205.104 -281.33
-45.2484 204.466 -281.643
-45.5881 205.154 -281.393
-43.418 206.164 -281.007
-46.0973 205.183 -280.958
-5.26714 209.356 -279.936
-45.8984 204.54 -281.233
-5.41315 208.868 -280.079
-46.4711 205.734 -280.355
-43.4738 206.723 -280.442
-5.51009 209.587 -279.736
-5.14356 209.82 -279.765
-5.32568 209.955 -279.666
-5.07967 211.169 -278.971
-5.10326 210.438 -279.311
-46.8187 206.537 -279.487
-43.569 207.328 -279.707
-5.35793 211.228 -278.902
-4.73862 211.062 -278.82
-5.7884 211.835 -278.451
-47.0097 207.355 -278.526
-43.6217 207.893 -278.83
-6.18184 212.573 -278.085
-4.63632 211.731 -278.108
-4.90449 212.415 -277.649
-47.047 208.112 -277.502
-43.5807 208.444 -277.877
-6.59777 212.735 -277.469
-5.37376 212.823 -277.692
-7.22848 213.082 -276.673
-5.07548 212.804 -277.057
-46.9587 208.822 -276.402
-43.3734 208.901 -276.918
-7.79267 213.818 -276.188
-5.79893 213.318 -276.845
-46.49 209.761 -276.594
-43.0829 210.031 -276.701
-8.38615 213.741 -275.571
-6.62083 213.866 -276.179
-5.22314 213.059 -276.527
-46.3904 210.074 -276.132
-42.4575 210.185 -275.807
-8.60413 214.061 -275.314
-7.30158 214.214 -275.502
-46.1125 210.459 -275.716
-41.8397 211.019 -275.551
-41.3257 211.686 -275.29
-8.62708 214.262 -274.923
-7.98137 214.385 -274.978
-46.618 209.662 -275.81
-6.65846 214.002 -275.499
-45.486 211.209 -275.535
-40.6034 211.785 -274.659
-44.8946 211.737 -274.814
-40.3437 212.21 -274.265
-45.8081 210.815 -274.788
-10.3082 213.658 -273.911
-9.58032 214 -274.208
-8.99265 214.309 -274.154
-8.33008 214.395 -274.339
-44.3546 212.098 -274.265
-39.8663 212.097 -273.802
-43.6328 212.307 -273.708
-40.0889 212.323 -273.5
-44.7366 211.765 -273.86
-42.9389 212.351 -272.887
-40.8539 212.65 -273.485
-41.9201 212.447 -272.688
-41.0875 212.583 -272.969
-43.6413 212.038 -272.736
-27.9227 195.131 -291.921
-26.6946 195.033 -292.089
-25.5997 194.982 -292.179
-24.6803 194.917 -292.247
-23.7708 195.133 -292.069
-22.8803 195.1 -292.088
-30.3979 195.672 -291.183
-29.0256 195.581 -291.417
-27.9923 195.809 -291.269
-27.0327 195.657 -291.458
-26.0534 195.482 -291.701
-24.9026 195.538 -291.649
-33.8092 196.071 -290.267
-32.7291 196.098 -290.448
-31.4798 196.089 -290.637
-30.4428 196.378 -290.425
-29.4777 196.268 -290.601
-28.5123 196.158 -290.801
-27.491 196.198 -290.639
-26.0624 195.935 -290.978
-20.7224 196.9 -290.452
-20.0086 197.194 -290.267
-19.074 197.437 -290.189
-34.0708 196.618 -289.567
-33.0673 196.699 -289.691
-31.9344 196.715 -289.81
-30.9588 196.697 -289.944
-29.9337 196.808 -289.708
-28.5921 196.581 -289.988
-19.4684 197.646 -289.792
-18.6891 197.821 -289.695
-34.2513 196.946 -288.992
-33.4463 197.08 -288.992
-32.3354 197.136 -288.994
-31.0246 197.097 -289.097
-38.7026 202.285 -283.273
-38.8245 201.991 -283.197
-38.8892 202.334 -283.195
-38.5512 202.147 -283.143
-41.9795 202.907 -282.623
-41.3929 202.852 -282.686
-40.6081 202.823 -282.684
-38.7999 202.301 -282.994
-41.9387 202.34 -282.8
-40.813 202.349 -282.933
-39.6042 202.357 -282.891
-42.6539 202.999 -282.479
-40.1768 202.843 -282.478
-45.0619 203.51 -281.73
-43.8462 203.071 -282.183
-41.2288 203.405 -281.782
-40.3977 203.015 -282.066
-43.0032 202.337 -282.557
-7.3716 206.458 -280.89
-45.6516 203.981 -281.446
-42.0082 204.069 -281.097
-46.0954 203.978 -281.112
-42.5549 204.743 -280.67
-5.61818 208.182 -280.197
-45.7985 203.531 -281.335
-41.39 203.548 -281.131
-7.47877 206.702 -280.533
-6.63327 207.186 -280.446
-5.78232 207.403 -280.539
-46.5106 204.603 -280.6
-43.0414 205.621 -280.435
-5.688 208.945 -279.861
-5.0889 208.86 -280.092
-4.74207 209.448 -279.755
-42.6343 204.851 -280.038
-4.73027 208.836 -280.043
-47.1277 205.327 -279.587
-43.2844 206.365 -279.836
-5.89159 209.32 -279.4
-4.39622 210.176 -279.126
-5.5703 210.02 -279.371
-47.5652 204.655 -279.306
-3.77611 209.872 -278.694
-47.3597 206.275 -278.607
-43.3787 206.698 -279.035
-5.68401 210.713 -278.87
-4.18292 210.814 -278.452
-6.07844 210.989 -278.235
-47.7195 205.297 -278.627
-3.67807 210.501 -277.91
-47.4476 207.045 -277.594
-43.4921 207.188 -278.072
-6.32536 211.854 -277.83
-4.0987 211.29 -277.75
-47.8169 206.067 -277.692
-3.76426 211.11 -277.078
-47.4376 207.703 -276.43
-43.4977 207.68 -277.101
-6.81993 211.988 -277.017
-4.4274 212.049 -276.999
-7.37322 212.184 -276.147
-47.8164 206.703 -276.728
-3.91946 211.566 -276.241
-47.2687 208.304 -275.774
-43.3325 208.099 -276.16
-7.90525 213.099 -275.891
-4.85304 212.725 -276.377
-42.9782 209.211 -275.999
-8.57075 213.106 -275.173
-5.25187 213.098 -275.707
-47.0155 208.894 -275.164
-42.4138 209.366 -275.146
-9.03768 213.751 -274.893
-6.08373 213.666 -275.556
-46.4627 209.908 -274.889
-41.6865 210.151 -274.939
-40.8065 210.907 -274.637
-10.6124 213.191 -273.814
-9.88246 213.492 -274.258
-6.64623 213.948 -274.641
-46.137 210.259 -273.822
-39.957 211.199 -274.126
-10.8023 213.406 -273.563
-7.56128 214.279 -274.453
-45.4326 211.18 -273.987
-39.8045 211.695 -273.959
-10.2986 213.79 -273.537
-9.52133 214.122 -273.542
-8.70451 214.302 -273.619
-7.97737 214.289 -273.765
-39.2432 211.026 -273.497
-38.7422 210.663 -273.068
-45.1409 211.398 -273.487
-39.38 211.624 -273.199
-44.6149 211.568 -272.938
-39.7649 212.071 -272.913
-45.497 210.92 -273.203
-38.8389 210.967 -272.986
-43.9319 211.663 -272.212
-40.3659 212.403 -272.946
-42.8083 211.925 -272.011
-41.604 212.065 -271.941
-40.7743 212.221 -272.334
-44.5303 211.232 -272.059
-39.9853 212.07 -272.492
-26.7209 185.75 -301.181
-25.4362 185.747 -301.338
-24.2332 185.816 -301.383
-23.0794 185.921 -301.357
-22.0475 186.016 -301.3
-27.8483 186.245 -300.593
-26.7039 186.563 -300.53
-25.751 186.509 -300.686
-24.594 186.549 -300.747
-23.4163 186.626 -300.741
-22.2706 186.7 -300.702
-21.1395 186.702 -300.687
-20.2201 186.874 -300.488
-30.2257 186.781 -299.557
-28.9947 186.749 -299.898
-27.9616 187.108 -299.79
-27.0677 187.114 -299.934
-26.0316 187.192 -299.983
-24.9256 187.247 -300.012
-23.7423 187.32 -300.005
-22.5505 187.397 -299.97
-21.3835 187.459 -299.916
-20.2181 187.521 -299.832
-30.7446 187.601 -298.648
-29.5138 187.584 -298.965
-28.4074 187.655 -299.118
-27.3831 187.746 -299.186
-26.3778 187.793 -299.246
-25.3003 187.881 -299.214
-24.1038 187.977 -299.159
-22.8637 188.046 -299.143
-21.6512 188.129 -299.089
-20.5096 188.19 -299.04
-19.5275 188.242 -298.981
-31.73 188.109 -297.878
-30.6893 188.426 -297.813
-29.8076 188.338 -298.084
-28.7564 188.326 -298.275
-27.7209 188.342 -298.394
-26.6862 188.383 -298.433
-25.7539 188.367 -298.519
-24.5954 188.645 -298.153
-23.2076 188.652 -298.23
-21.9619 188.718 -298.222
-20.6889 188.858 -298.098
-19.6486 188.81 -298.22
-32.2653 189.011 -296.818
-31.0416 189.008 -297.085
-30.0041 189.029 -297.24
-29.0088 188.979 -297.424
-27.9788 188.953 -297.545
-27.0471 188.885 -297.697
-25.7997 189.075 -297.442
-19.6833 189.337 -297.44
-33.309 189.631 -295.959
-32.0804 189.867 -295.966
-31.2206 189.732 -296.244
-30.2018 189.699 -296.402
-29.1515 189.638 -296.556
-28.2549 189.477 -296.808
-27.0157 189.595 -296.65
-34.468 190.272 -295.088
-33.2275 190.56 -295.079
-32.2811 190.502 -295.285
-31.2149 190.475 -295.44
-30.3856 190.306 -295.688
-29.2801 190.413 -295.591
-28.05 190.135 -295.913
-35.6617 190.881 -294.248
-34.4841 191.212 -294.243
-33.5332 191.193 -294.436
-32.4421 191.256 -294.542
-31.2964 191.265 -294.652
-29.9073 191.18 -294.789
-36.7307 191.326 -293.535
-35.8141 191.815 -293.408
-34.8556 191.847 -293.611
-33.7783 191.937 -293.738
-32.6904 192.004 -293.844
-31.5405 192.078 -293.912
-30.3118 192.119 -293.961
-28.9208 192.251 -293.87
-27.551 192.659 -293.56
-26.3228 192.811 -293.451
-25.1708 192.89 -293.39
-24.0576 192.962 -293.316
-22.9996 193.054 -293.205
-28.4186 194.359 -292.462
-27.4018 194.338 -292.539
-26.2229 194.335 -292.598
-25.1251 194.343 -292.62
-24.0917 194.415 -292.563
-23.0831 194.552 -292.434
-36.457 192.448 -292.654
-35.1883 192.617 -292.88
-34.0603 192.698 -293.047
-32.9621 192.756 -293.177
-31.8419 192.875 -293.23
-30.6311 192.984 -293.266
-29.5425 192.953 -293.354
-28.3194 193.447 -293.063
-26.9087 193.545 -293.038
-25.7036 193.606 -293.02
-24.5781 193.666 -292.978
-23.464 193.767 -292.874
-22.1453 193.971 -292.653
-20.7366 194.166 -292.408
-28.9652 194.803 -292.093
-22.3148 194.841 -292.204
-30.9817 194.871 -291.804
-29.9778 194.832 -291.952
-23.0334 195.527 -291.707
-22.3167 195.315 -291.873
-37.1721 193.042 -291.8
-36.297 193.398 -291.888
-35.4675 193.419 -292.14
-34.3352 193.535 -292.312
-33.1754 193.567 -292.499
-32.2143 193.516 -292.68
-31.0302 193.934 -292.511
-29.5444 193.922 -292.669
-21.2901 195.19 -291.847
-19.6209 195.087 -291.793
-18.1475 195.373 -291.506
-16.9793 195.477 -291.338
-31.4723 195.319 -291.371
-23.8473 195.65 -291.575
-34.502 195.387 -290.727
-33.5995 195.336 -290.995
-32.4574 195.327 -291.208
-24.2623 195.875 -291.21
-21.0943 196.619 -290.672
-20.3999 196.673 -290.758
-19.4412 196.86 -290.669
-37.3799 193.787 -290.932
-36.5115 194.011 -291.212
-35.7236 194.056 -291.512
-34.6674 194.463 -291.471
-33.3895 194.46 -291.755
-32.0944 194.445 -291.98
-23.2858 195.961 -291.072
-22.1727 195.79 -291.374
-21.1593 196.156 -291.086
-20.0663 196.08 -291.211
-18.6577 196.352 -290.96
-17.2694 196.378 -290.784
-15.9776 196.3 -290.696
-14.7881 196.493 -290.443
-14.0009 196.551 -290.305
-34.7935 195.934 -290.072
-24.975 195.943 -290.975
-21.1934 196.777 -290.426
-18.6158 197.159 -290.44
-26.6102 196.25 -289.961
-25.326 196.063 -290.265
-20.9243 197.027 -289.973
-20.1004 197.46 -289.802
-18.3774 197.58 -290.063
-36.7563 194.749 -290.252
-35.5556 194.938 -290.732
-24.2638 196.042 -290.616
-23.369 196.158 -290.324
-22.0079 196.405 -290.483
-17.7158 197.299 -290.164
-16.3947 197.276 -289.964
-15.1441 197.242 -289.853
-14.1234 197.163 -289.784
-34.911 196.498 -289.294
-27.6129 196.503 -289.865
-19.7753 197.68 -289.523
-17.9617 197.848 -289.669
-29.0776 196.921 -288.975
-28.0498 196.649 -289.237
-19.2015 197.888 -289.082
-18.1609 198.072 -289.184
-36.6917 195.544 -289.179
-35.7609 195.735 -289.719
-27.2893 196.464 -289.417
-21.1061 197.037 -289.296
-20.2962 197.458 -289.3
-17.0037 198.076 -289.101
-15.5032 197.995 -289.103
-14.3534 197.868 -289.089
-34.7317 196.883 -288.647
-30.0063 197.125 -288.882
-33.9466 197.175 -288.398
-32.8843 197.33 -288.264
-31.6179 197.335 -288.103
-30.4246 197.222 -288.252
-36.6804 195.988 -288.188
-35.6605 196.38 -288.659
-29.6287 197.121 -288.405
-19.1232 197.973 -288.261
-17.9935 198.293 -288.258
-16.7281 198.567 -288.089
-15.74 198.541 -288.255
-14.603 198.446 -288.316
-36.649 196.151 -287.419
-35.8625 196.493 -287.643
-34.7167 196.933 -287.838
-33.4923 197.26 -287.635
-32.4046 197.375 -287.502
-16.9903 198.625 -287.399
-15.9057 198.761 -287.413
-14.8077 198.764 -287.502
-38.7709 201.099 -283.211
-39.3969 201.742 -283.212
-38.1093 201.499 -282.927
-41.9183 201.704 -282.936
-41.2345 201.723 -283.046
-40.2133 201.781 -283.151
-41.937 201.003 -282.966
-40.6332 201.062 -283.192
-39.716 201.238 -283.268
-37.184 200.927 -282.563
-36.5436 200.621 -282.399
-11.9773 203.048 -282.551
-11.7314 203.215 -282.553
-42.5613 201.732 -282.765
-38.4039 201.993 -282.775
-43.1872 201.826 -282.577
-38.8694 202.169 -282.291
-7.83584 205.891 -281.16
-43.341 201.204 -282.549
-9.44438 204.641 -281.678
-8.65083 204.802 -281.75
-7.53823 205.277 -281.557
-6.30089 205.233 -281.539
-43.7905 202.075 -282.327
-39.7578 202.638 -282.121
-8.09182 206.109 -280.672
-7.24501 206.061 -281.231
-45.5792 202.957 -281.453
-44.7658 202.513 -281.883
-40.3089 202.841 -281.348
-6.74246 206.498 -280.994
-5.7671 206.638 -280.859
-45.6743 201.984 -281.409
-44.4966 201.582 -282.056
-8.7406 205.29 -281.196
-6.583 205.949 -281.288
-5.80119 205.795 -281.252
-46.4397 203.343 -280.793
-40.986 203.227 -281.049
-7.79553 206.553 -280.233
-5.10491 207.503 -280.458
-41.4506 203.443 -280.419
-7.33088 206.956 -280.195
-7.0262 207.331 -279.88
-4.83224 208.305 -280.192
-46.8106 202.257 -280.599
-4.23017 207.711 -280.141
-3.5803 207.533 -279.831
-47.1783 204.222 -279.936
-42.1535 204.146 -280.196
-6.41846 208.168 -279.506
-4.34828 208.645 -279.907
-47.6169 204.129 -279.465
-42.4862 204.384 -279.329
-4.0251 209.226 -279.388
-47.574 203.33 -279.725
-7.07353 207.386 -279.402
-3.73287 208.276 -279.617
-47.9938 204.325 -278.807
-42.9972 205.493 -279.362
-6.2397 209.131 -278.749
-3.40081 208.849 -278.929
-5.92003 209.91 -278.926
-48.3824 203.515 -278.774
-48.2484 205.125 -277.648
-43.2634 205.949 -278.27
-6.00488 210.351 -278.537
-3.24426 209.527 -278.085
-6.22306 210.254 -278.078
-48.5914 204.209 -277.961
-6.15762 209.799 -278.417
-48.1391 205.919 -276.859
-43.4493 206.438 -277.282
-6.48289 210.774 -277.407
-3.2689 210.197 -277.174
-48.1334 206.327 -275.873
-43.4898 206.906 -276.333
-6.92499 211.075 -276.355
-3.43257 210.802 -276.237
-47.7851 207.101 -275.872
-7.39858 211.311 -275.465
-3.72092 211.36 -275.344
-47.5286 207.772 -275.11
-43.3417 207.312 -275.415
-7.97862 212.293 -275.345
-4.42928 212.276 -275.489
-42.968 208.407 -275.269
-8.65804 212.325 -274.641
-4.94247 212.851 -274.741
-47.9094 206.948 -275.209
-47.2094 208.452 -274.118
-42.3895 208.603 -274.437
-9.31309 213.033 -274.525
-5.61107 213.325 -274.347
-46.7772 209.308 -274.09
-41.784 209.377 -274.423
-40.8162 209.809 -273.972
-39.7381 210.455 -273.694
-38.984 210.485 -273.241
-10.7652 212.611 -273.635
-10.0907 212.852 -274.006
-6.29237 213.688 -273.707
-12.0711 211.855 -273.117
-5.01067 212.874 -274.108
-46.5675 209.447 -273.155
-38.658 210.274 -272.798
-11.3804 212.7 -273.317
-7.10414 213.945 -273.405
-10.9926 213.305 -273.06
-10.1495 213.731 -272.765
-9.09734 214.054 -272.858
-8.14578 214.105 -273.007
-46.9647 208.866 -273.452
-40.5224 209.172 -273.215
-39.8051 209.662 -273.181
-39.0796 210.025 -273.01
-12.1583 212.214 -272.988
-6.39052 213.625 -273.13
-45.9686 210.133 -272.716
-38.5975 210.579 -272.693
-45.2381 210.793 -272.341
-38.837 210.896 -272.376
-10.2283 213.447 -271.977
-9.40919 213.704 -272.061
-8.4536 213.835 -272.185
-44.7428 210.644 -271.481
-39.427 211.61 -272.42
-43.7138 211.213 -271.415
-42.6363 211.37 -271.129
-41.7447 211.596 -271.287
-40.7582 211.697 -271.531
-39.9397 211.682 -271.909
-27.1998 184.938 -301.638
-26.2016 184.918 -301.787
-24.9882 184.972 -301.888
-23.7901 185.086 -301.898
-22.6519 185.255 -301.821
-28.1041 183.656 -301.98
-27.0107 184.068 -302.058
-25.6678 184.115 -302.245
-24.4418 184.218 -302.315
-23.2159 184.376 -302.283
-21.8857 184.659 -302.108
-20.55 184.691 -301.958
-19.237 184.745 -301.723
-18.0145 184.838 -301.493
-27.7141 185.389 -301.274
-21.7886 185.482 -301.672
-28.4521 185.434 -301.077
-21.3057 185.992 -301.299
-20.5296 186.243 -301.034
-30.3241 184.266 -301.056
-29.1185 184.022 -301.563
-28.1792 184.639 -301.577
-20.9822 185.474 -301.598
-19.7501 185.761 -301.241
-18.394 185.766 -301.043
-17.1042 185.739 -300.901
-15.9818 185.999 -300.601
-28.9448 185.886 -300.631
-19.744 186.591 -300.669
-30.7608 186.102 -299.942
-29.8602 185.976 -300.304
-31.5736 184.708 -300.389
-30.6264 185.31 -300.473
-29.3951 185.065 -301.012
-18.7265 186.787 -300.346
-17.438 186.72 -300.242
-16.2634 186.729 -300.111
-15.1943 186.702 -299.97
-31.2891 186.679 -299.316
-19.4736 187.233 -300.076
-19.3213 187.808 -299.484
-32.8543 185.437 -299.499
-31.6231 185.792 -299.817
-18.6254 187.72 -299.49
-17.6147 187.652 -299.432
-16.451 187.611 -299.361
-15.3306 187.555 -299.278
-14.3907 187.403 -299.209
-31.7641 187.266 -298.669
-18.7992 188.23 -298.962
-32.4886 187.399 -298.304
-34.0116 186.054 -298.636
-33.2193 186.268 -298.877
-32.4178 186.551 -298.998
-17.8308 188.522 -298.526
-16.5881 188.491 -298.478
-15.4155 188.446 -298.428
-14.2178 188.332 -298.344
-32.933 188.041 -297.574
-18.7277 188.771 -298.271
-23.481 189.239 -297.253
-22.2647 189.249 -297.33
-21.1332 189.314 -297.336
-20.2883 189.42 -297.255
-34.739 187.042 -297.645
-33.4514 187.047 -298.212
-17.795 189.369 -297.458
-16.6785 189.33 -297.513
-15.5115 189.314 -297.504
-14.3525 189.267 -297.456
-13.3284 189.15 -297.38
-33.374 188.7 -296.835
-24.5295 189.285 -297.128
-19.6633 189.745 -296.801
-18.8081 189.366 -297.443
-34.109 188.844 -296.481
-24.9677 189.644 -296.547
-19.033 189.779 -296.811
-35.7143 187.586 -296.797
-34.958 187.799 -297.024
-34.1274 188.002 -297.192
-23.8007 189.851 -296.243
-22.492 189.793 -296.402
-21.3231 189.809 -296.492
-20.2888 189.832 -296.584
-17.9885 190.082 -296.456
-16.7475 190.105 -296.526
-15.5864 190.128 -296.552
-14.417 190.135 -296.532
-13.1916 190.076 -296.455
-34.4737 189.348 -295.922
-25.78 189.749 -296.394
-35.2131 189.459 -295.595
-26.1769 190.146 -295.833
-36.6333 188.066 -295.971
-35.9589 188.35 -296.164
-35.1277 188.568 -296.354
-24.9142 190.312 -295.581
-23.5903 190.465 -295.345
-22.611 190.374 -295.505
-21.4555 190.368 -295.607
-20.2895 190.398 -295.705
-19.0257 190.367 -295.928
-17.7238 190.797 -295.484
-16.7754 190.821 -295.577
-15.6464 190.889 -295.613
-14.4935 190.947 -295.612
-13.3364 190.96 -295.569
-12.3117 190.898 -295.493
-35.6143 189.969 -295.04
-26.9656 190.275 -295.686
-36.3234 190.092 -294.7
-28.215 190.814 -295.077
-27.3582 190.668 -295.206
-37.313 188.826 -295.106
-36.2146 189.156 -295.447
-26.1689 190.833 -294.985
-24.9081 191.017 -294.729
-23.8855 190.978 -294.75
-22.7251 190.997 -294.731
-21.5795 190.996 -294.778
-20.4059 191.043 -294.819
-19.2029 191.127 -294.859
-17.9812 191.301 -294.798
-16.8204 191.491 -294.714
-15.7 191.616 -294.715
-14.5552 191.719 -294.715
-13.4002 191.78 -294.689
-12.1884 191.771 -294.608
-36.6975 190.571 -294.179
-28.9134 191.053 -294.851
-37.3179 190.669 -293.823
-28.8089 191.529 -294.404
-27.9662 191.844 -294.114
-26.876 192.042 -293.937
-25.7777 192.154 -293.829
-24.681 192.21 -293.764
-23.587 192.301 -293.666
-38.0131 189.31 -294.363
-37.1988 189.871 -294.467
-28.2613 191.307 -294.561
-27.3191 191.288 -294.556
-26.3015 191.552 -294.283
-25.3423 191.531 -294.271
-24.2207 191.59 -294.187
-22.9575 191.736 -294.047
-21.7287 191.71 -294.059
-20.5368 191.764 -294.038
-19.3413 191.85 -294.021
-18.1361 191.999 -293.975
-16.9413 192.177 -293.913
-15.7722 192.346 -293.87
-14.6168 192.484 -293.85
-13.4747 192.573 -293.831
-12.364 192.594 -293.791
-11.3588 192.561 -293.69
-37.5462 191.149 -293.317
-22.7096 192.465 -293.516
-37.2768 191.75 -292.947
-22.1925 193.003 -293.173
-21.3233 193.251 -292.973
-38.1286 190.391 -293.494
-21.9164 192.424 -293.51
-20.6986 192.63 -293.334
-19.4835 192.632 -293.316
-18.2766 192.783 -293.226
-17.0586 192.959 -293.139
-15.869 193.121 -293.076
-14.6927 193.282 -293.018
-13.5349 193.387 -292.981
-12.4261 193.405 -292.962
-11.4031 193.312 -292.947
-37.4033 192.242 -292.439
-20.4099 193.483 -292.765
-37.8819 192.375 -292.004
-19.8183 194.082 -292.376
-18.8714 194.337 -292.165
-17.716 194.565 -291.955
-38.6733 191.043 -292.534
-37.9874 191.574 -292.66
-19.6076 193.427 -292.753
-18.5026 193.578 -292.621
-17.1808 193.892 -292.387
-15.9857 193.949 -292.353
-14.8111 194.13 -292.236
-13.6228 194.262 -292.138
-12.4737 194.273 -292.096
-11.4268 194.155 -292.106
-37.9982 192.981 -291.286
-16.7973 194.81 -291.746
-16.2011 195.4 -291.328
-15.3709 195.636 -291.115
-14.3884 195.863 -290.878
-78.1218 186.968 -290.962
-38.6044 191.991 -291.7
-16.0663 194.762 -291.748
-15.0372 194.934 -291.596
-13.7853 195.267 -291.271
-12.5918 195.189 -291.23
-11.4178 195.112 -291.129
-38.0132 193.612 -290.608
-13.5985 196.182 -290.526
-37.6151 194.208 -290.274
-75.0188 188.331 -290.203
-74.8747 188.373 -290.181
-38.6839 192.984 -290.515
-12.6998 196.212 -290.284
-11.7838 195.862 -290.428
-10.8711 195.951 -290.044
-37.5501 194.756 -289.545
-13.3458 196.87 -289.875
-25.6764 195.924 -289.228
-24.2527 195.985 -289.674
-22.922 196.216 -289.636
-21.8451 196.627 -289.524
-38.8461 193.643 -289.432
-38.2043 193.982 -289.906
-12.5465 197.194 -289.218
-11.5713 196.654 -289.406
-37.5158 195.29 -288.591
-26.7214 196.224 -289.189
-21.4987 196.692 -288.782
-13.4039 197.621 -289.11
-28.319 196.619 -288.37
-27.4093 196.349 -288.77
-20.7866 197.16 -288.796
-20.0038 197.538 -288.456
-38.3065 194.499 -288.936
-12.7345 197.942 -288.339
-11.819 197.499 -288.293
-37.4463 195.622 -287.557
-29.0836 196.946 -288.251
-19.4893 197.714 -287.847
-13.6143 198.251 -288.358
-30.7328 197.153 -287.395
-29.6421 196.946 -287.732
-18.734 198.019 -287.603
-17.8551 198.355 -287.256
-38.1855 194.99 -288.045
-28.8503 196.718 -287.846
-20.0144 197.289 -287.75
-13.0461 198.418 -287.728
-12.2521 198.179 -287.379
-36.9113 195.963 -286.864
-31.5788 197.348 -287.335
-17.1497 198.506 -286.801
-13.8026 198.642 -287.609
-36.1178 196.312 -286.807
-35.0999 196.677 -286.913
-33.9973 196.981 -286.957
-32.9123 197.159 -286.918
-31.9642 197.22 -286.894
-16.1628 198.632 -286.589
-14.9878 198.778 -286.682
-13.9114 198.754 -286.806
-31.2718 197.189 -286.941
-17.6473 198.23 -286.643
-13.0251 198.59 -287.032
-41.9483 200.178 -283.004
-41.0842 200.187 -283.143
-39.6789 200.351 -283.261
-38.4696 200.167 -283.207
-37.4449 200.405 -282.952
-36.6492 200.441 -282.642
-12.0256 202.776 -282.558
-11.6768 202.963 -282.64
-42.0029 199.305 -282.981
-40.3222 199.245 -283.204
-38.9055 199.353 -283.233
-37.7414 199.505 -283.114
-36.8815 199.551 -282.924
-11.7146 202.433 -282.596
-10.9062 202.744 -282.62
-9.71093 202.83 -282.582
-42.7406 200.266 -282.789
-36.2053 200.283 -282.438
-12.1803 202.829 -282.331
-11.3012 203.232 -282.541
-43.6605 200.408 -282.485
-36.7821 200.762 -281.934
-36.1874 200.404 -282.159
-11.9006 203.17 -282.327
-11.4442 203.362 -282.354
-9.87305 204.234 -281.936
-9.25506 204.229 -282.043
-8.07722 204.323 -282.017
-6.64284 204.338 -281.872
-44.4543 199.424 -282.224
-43.4691 199.595 -282.587
-10.4313 203.597 -282.197
-8.80259 203.476 -282.354
-7.41201 203.58 -282.218
-6.59386 203.583 -282.097
-44.2176 200.856 -282.234
-37.8732 201.491 -282.185
-10.1611 204.248 -281.613
-5.8323 204.746 -281.634
-45.6817 201.081 -281.48
-45.0392 200.96 -281.835
-38.4852 201.693 -281.348
-9.6966 204.713 -281.236
-5.35469 205.172 -281.365
-45.5621 200.124 -281.586
-44.4266 200.213 -282.173
-5.36561 204.687 -281.536
-46.321 201.288 -281.048
-39.3779 202.259 -281.346
-9.50163 204.936 -280.665
-4.99311 205.909 -280.99
-46.9826 201.578 -280.56
-39.9188 202.279 -280.437
-8.81437 205.526 -280.491
-4.48907 206.705 -280.538
-3.78426 207.031 -280.143
-47.0047 200.71 -280.572
-4.20119 205.904 -280.696
-47.6421 202.031 -279.955
-40.6912 202.8 -280.372
-8.32667 205.979 -279.897
-3.30844 207.016 -279.816
-41.1898 202.813 -279.46
-7.57752 206.787 -279.679
-48.1338 201.217 -279.62
-48.2019 202.817 -279.294
-41.8845 203.518 -279.39
-7.36981 206.925 -278.92
-3.09813 207.717 -279.252
-48.6886 202.919 -278.732
-42.3687 203.744 -278.442
-6.91516 207.595 -278.902
-48.8913 201.707 -278.852
-48.4961 202.224 -279.158
-48.9884 203.427 -277.985
-42.885 204.773 -278.388
-6.63646 208.212 -278.418
-2.82731 208.465 -278.297
-49.1346 202.524 -278.309
-49.0134 204.11 -277.261
-43.2301 205.248 -277.428
-6.45521 209.3 -277.693
-2.7937 209.203 -277.287
-48.7064 204.68 -277.176
-48.5745 205.314 -276.307
-43.4424 205.728 -276.522
-6.65674 209.838 -276.514
-2.94042 209.9 -276.286
-48.963 204.566 -276.637
-48.4127 205.857 -275.453
-43.483 206.154 -275.608
-6.94759 210.224 -275.563
-3.18132 210.489 -275.22
-7.34508 210.465 -274.755
-3.53839 211.085 -274.528
-48.1888 206.345 -274.657
-43.3327 206.552 -274.705
-7.96389 211.442 -274.695
-4.00292 211.721 -274.374
-47.8333 207.125 -274.538
-42.9743 207.629 -274.54
-12.5602 211.254 -272.933
-8.65116 211.479 -274.045
-3.6882 211.214 -273.774
-47.5621 207.581 -273.798
-42.3663 207.835 -273.698
-12.6729 211.609 -272.857
-11.8858 211.263 -272.987
-9.42216 212.268 -274.063
-4.57839 212.41 -274.156
-41.4872 208.772 -273.611
-11.1708 211.896 -273.286
-10.241 212.125 -273.628
-5.05472 212.712 -273.33
-47.8941 206.906 -273.936
-12.9605 211.185 -272.871
-47.1785 208.263 -273.143
-40.7061 208.513 -272.706
-12.36 212.046 -272.618
-5.84654 213.294 -273.166
-46.8423 208.835 -272.802
-39.8469 209.013 -272.579
-39.1414 209.467 -272.523
-38.7145 209.847 -272.495
-11.747 212.656 -272.746
-11.0501 213.093 -272.251
-6.43919 213.346 -272.413
-46.3428 209.225 -272.112
-38.5444 210.102 -272.158
-10.5673 213.082 -271.568
-7.49336 213.719 -272.315
-45.5734 210.02 -271.733
-38.6791 210.245 -271.489
-9.65645 213.209 -271.266
-8.6439 213.45 -271.423
-7.86808 213.514 -271.629
-11.1501 212.678 -271.54
-44.9241 209.892 -270.807
-39.2132 211.015 -271.679
-43.9683 210.422 -270.653
-42.8917 210.773 -270.549
-41.8078 210.973 -270.567
-40.7786 211.081 -270.78
-39.8734 211.088 -271.151
-24.9104 181.818 -302.713
-23.5367 181.896 -302.834
-22.3293 182.032 -302.868
-21.223 182.181 -302.83
-20.2517 182.288 -302.721
-19.4478 182.272 -302.525
-28.0536 183.044 -302.131
-27.307 183.086 -302.273
-26.1606 183.242 -302.455
-25.0005 183.371 -302.58
-23.807 183.476 -302.623
-22.563 183.628 -302.576
-21.3015 183.751 -302.46
-20.0312 183.78 -302.277
-18.5781 183.659 -301.961
-27.9251 182.321 -302.115
-26.3667 182.266 -302.503
-25.389 182.649 -302.674
-24.325 182.638 -302.775
-23.1055 182.735 -302.813
-21.9005 182.862 -302.776
-20.7459 182.952 -302.666
-19.6699 182.935 -302.481
-18.9075 182.718 -302.276
-28.734 183.164 -301.892
-17.5173 184.254 -301.59
-30.4493 183.593 -301.202
-29.7572 183.415 -301.489
-17.1479 184.892 -301.341
-16.3678 185.229 -301.042
-30.4856 182.907 -301.164
-29.2383 182.585 -301.693
-16.6461 184.423 -301.315
-15.624 184.798 -300.906
-14.6681 184.738 -300.477
-31.1058 183.81 -300.866
-15.614 185.532 -300.747
-31.7764 184.049 -300.528
-15.2624 186.033 -300.427
-31.8384 183.365 -300.523
-14.7856 185.583 -300.382
-13.7984 185.299 -299.9
-32.4588 184.328 -300.121
-14.6964 186.3 -300.082
-33.3632 184.64 -299.617
-14.3769 186.786 -299.671
-34.7325 183.794 -298.983
-33.9326 183.632 -299.439
-33.1358 183.784 -299.863
-13.856 186.314 -299.629
-12.9682 185.937 -299.209
-33.8643 185.189 -299.177
-13.7504 187.096 -299.173
-34.5756 185.354 -298.727
-35.4667 184.246 -298.583
-35.0241 184.376 -298.836
-34.298 184.47 -299.179
-12.7048 187.038 -298.565
-35.1024 186.059 -298.049
-13.4613 187.796 -298.54
-13.2214 188.512 -297.908
-35.3645 185.009 -298.378
-12.5193 188.193 -297.807
-11.6727 187.785 -297.539
-35.5675 186.752 -297.395
-12.5932 188.908 -297.33
-35.9959 186.915 -297.045
-36.0952 186.143 -297.3
-11.5408 188.893 -296.77
-36.4547 187.155 -296.594
-12.3821 189.597 -296.666
-36.9663 187.457 -296.085
-12.1864 190.299 -296.014
-37.0896 186.701 -296.229
-11.4643 190.019 -295.945
-10.5786 189.633 -295.714
-37.5234 187.845 -295.465
-11.5788 190.705 -295.454
-37.8944 187.06 -295.355
-10.5647 190.742 -294.95
-37.9878 188.6 -294.799
-11.3822 191.355 -294.811
-38.3567 188.826 -294.397
-11.1947 192.009 -294.179
-38.4497 188.078 -294.557
-10.4916 191.752 -294.127
-9.70614 191.38 -294.016
-38.73 189.215 -293.778
-10.6063 192.392 -293.622
-39.1863 188.377 -293.681
-9.59992 192.362 -293.115