<VTKFile type="UnstructuredGrid" version="0.1" byte_order="BigEndian">
  <UnstructuredGrid>
    <Piece NumberOfPoints="15336" NumberOfCells="30664">
      <PointData>
        <DataArray type="Float64" Name="position" NumberOfComponents="3" format="ascii">
-43.7918 179.796 -255.254
-43.9419 180.26 -254.77
-2.36754 185.293 -253.801
-44.1094 180.875 -254.086
-2.89814 185.718 -253.425
-2.61315 186.014 -253.04
-44.2566 181.329 -253.573
-3.39036 186.535 -252.512
-43.1865 182.643 -251.693
-4.17715 186.872 -251.924
-3.95328 187.229 -251.714
-4.50611 187.312 -251.311
-26.7814 170.053 -267.754
-28.8686 170.753 -266.838
-28.4632 170.769 -266.716
-43.8103 179.534 -255.481
-43.8215 179.024 -255.684
-2.96732 182.245 -255.771
-44.1055 179.785 -255.186
-43.5788 179.297 -255.476
-2.26762 184.683 -254.355
-44.3448 179.127 -255.422
-2.07605 184.186 -254.65
-44.3699 180.481 -254.468
-43.5864 179.774 -254.974
-2.63447 184.948 -254.079
-1.9515 184.626 -254.187
-3.08042 185.19 -253.621
-44.661 179.814 -254.713
-44.4861 181.084 -253.807
-43.6944 180.378 -254.258
-3.35398 185.866 -253.076
-1.96201 185.344 -253.271
-2.31843 186.113 -252.589
-44.8161 180.564 -253.912
-44.4675 181.419 -253.419
-43.8196 181.148 -253.343
-3.84961 186.168 -252.485
-2.8179 186.585 -252.243
-44.2686 181.597 -253.02
-43.2198 182.448 -251.808
-4.46676 186.398 -251.794
-44.7244 181.246 -253.143
-2.40456 186.417 -251.984
-43.3665 182.551 -251.839
-42.7996 182.519 -251.409
-4.7139 186.978 -251.407
-3.40445 187.076 -251.715
-43.2932 182.612 -251.573
-3.8618 187.426 -251.324
-43.684 182.062 -252.15
-5.07034 187.184 -250.777
-4.23884 187.498 -251.199
-4.64044 187.45 -250.566
-42.8178 182.796 -250.909
-41.874 183 -250.377
-41.1887 183.108 -250.088
-5.53046 186.974 -250.396
-4.08165 187.509 -250.876
-25.7751 161.638 -277.271
-24.5144 161.604 -277.49
-23.3243 161.672 -277.532
-22.0601 161.815 -277.474
-20.8005 161.949 -277.436
-19.7143 162.068 -277.401
-26.879 162.029 -276.612
-25.8371 162.259 -276.544
-24.8766 162.192 -276.754
-23.8735 162.117 -276.964
-22.7293 162.385 -276.697
-21.2105 162.539 -276.642
-19.9521 162.57 -276.749
-18.8004 162.637 -276.768
-17.76 162.893 -276.511
-27.7933 162.397 -275.892
-26.9331 162.629 -275.822
-26.2674 162.568 -276.054
-25.2797 162.757 -275.894
-23.9161 162.677 -276.152
-20.1572 163.032 -276.045
-19.106 163.123 -276.041
-18.0579 163.253 -275.971
-17.1906 163.351 -275.911
-28.0411 162.839 -275.174
-27.2753 162.973 -275.194
-26.248 163.045 -275.299
-23.8231 167.993 -269.706
-22.5883 168.007 -269.764
-21.4764 168.048 -269.783
-29.8051 168.224 -268.991
-28.5509 168.273 -269.096
-27.3823 168.365 -269.125
-26.1647 168.412 -269.168
-24.8518 168.381 -269.284
-23.8168 168.675 -269.101
-22.9318 168.667 -269.157
-21.7763 168.743 -269.143
-20.4682 168.772 -269.205
-19.1254 169.075 -269.034
-18.0032 169.271 -268.938
-26.8839 169.908 -267.894
-33.4935 168.627 -268.03
-32.199 168.62 -268.305
-30.8656 168.643 -268.519
-29.7621 169.104 -268.325
-28.7748 169.108 -268.426
-27.7836 169.034 -268.57
-26.6355 169.312 -268.358
-25.3361 169.064 -268.562
-24.1998 169.046 -268.608
-23.3127 169.059 -268.684
-22.3096 169.266 -268.457
-20.9231 169.462 -268.384
-19.5793 169.647 -268.379
-18.2822 169.906 -268.285
-16.9785 170.054 -268.276
-15.7268 170.386 -268.04
-27.0423 170.063 -267.768
-26.344 169.864 -267.684
-29.2041 170.498 -267.111
-28.5182 170.462 -267.171
-26.8787 170.096 -267.537
-34.3986 169.024 -267.356
-33.3772 169.442 -267.269
-32.4369 169.429 -267.51
-31.2417 169.474 -267.712
-30.2358 169.517 -267.881
-29.1774 169.895 -267.698
-27.6516 169.921 -267.751
-25.6268 169.52 -267.943
-24.5907 169.409 -267.915
-23.3214 169.381 -268.007
-19.997 169.993 -267.738
-18.7302 170.407 -267.468
-17.3471 170.732 -267.456
-16.0438 171.003 -267.376
-14.7494 171.18 -267.292
-13.5969 171.501 -266.978
-29.3486 170.738 -266.679
-27.8179 170.5 -266.748
-28.8761 170.89 -266.392
-28.3209 170.818 -266.322
-34.7336 169.604 -266.501
-33.7547 169.861 -266.61
-32.6851 170.042 -266.72
-31.5427 170.133 -266.891
-30.155 170.283 -267.036
-27.1121 170.214 -267.067
-17.6852 171.148 -266.598
-16.4172 171.516 -266.58
-15.1404 171.797 -266.493
-13.9457 171.982 -266.399
-12.9698 172.039 -266.324
-34.1404 170.227 -265.786
-33.0225 170.43 -265.911
-31.8707 170.568 -266.041
-30.8291 170.631 -266.243
-29.7036 170.861 -265.926
-28.6674 170.873 -265.791
-16.7771 171.737 -265.838
-15.5183 172.183 -265.599
-14.2403 172.402 -265.64
-13.1373 172.463 -265.646
-33.3546 170.598 -265.121
-32.2136 170.766 -265.172
-30.8965 170.903 -265.312
-14.4262 172.621 -264.841
-13.3217 172.717 -264.873
-4.41862 179.735 -257.429
-42.6989 176.567 -256.804
-4.43702 180.173 -256.857
-3.56397 180.444 -256.95
-2.59634 180.781 -256.714
-43.6385 178.328 -256.001
-3.17682 181.881 -255.857
-43.4366 177.39 -256.342
-42.7561 176.92 -256.478
-3.80663 181.016 -256.182
-2.91507 181.57 -256.197
-2.09498 181.524 -256.094
-44.0402 178.416 -255.886
-43.3109 178.361 -255.792
-3.07316 182.214 -255.602
-2.84129 182.231 -255.817
-44.4719 178.592 -255.609
-2.82844 182.449 -255.615
-2.13126 183.697 -254.929
-44.5258 177.838 -255.831
-2.38814 182.753 -255.383
-44.9138 178.844 -255.036
-43.2686 178.985 -255.202
-2.43514 184.054 -254.672
-1.7407 183.587 -254.729
-45.2991 177.929 -255.133
-45.2782 179.699 -253.918
-43.3242 179.547 -254.479
-2.86871 184.374 -254.169
-1.46444 184.288 -253.872
-3.24226 184.523 -253.582
-45.6039 178.62 -254.264
-45.1683 180.576 -253.182
-43.3765 180.191 -253.581
-3.54124 185.328 -253.02
-1.30038 184.784 -252.846
-0.932767 184.516 -252.321
-45.1162 181.075 -252.152
-43.2151 180.95 -252.476
-4.07098 185.499 -252.255
-1.8872 185.79 -252.135
-44.4622 181.762 -252.318
-42.9719 181.929 -251.78
-4.66816 185.719 -251.413
-2.26209 186.366 -251.44
-44.1634 182.142 -251.823
-42.218 181.93 -251.128
-5.11698 186.612 -250.989
-2.82932 186.807 -251.313
-43.7837 182.475 -251.243
-41.8257 182.576 -250.708
-41.1974 182.89 -250.276
-5.7123 186.543 -250.254
-44.5597 181.899 -251.509
-2.43213 186.514 -250.756
-43.3089 182.793 -250.696
-40.5629 182.9 -249.799
-5.83155 186.898 -250.015
-3.54177 187.264 -250.923
-42.7681 182.935 -250.096
-41.5567 183.15 -249.872
-40.9621 183.149 -249.808
-5.57696 187.16 -249.75
-4.71807 187.378 -249.622
-4.01651 187.363 -250.217
-43.7578 182.613 -250.432
-42.9138 182.874 -249.315
-41.9729 183.077 -249.32
-40.7324 183.079 -249.236
-39.7812 182.913 -248.742
-6.40528 186.819 -248.899
-5.93437 187.095 -248.796
-5.26223 187.257 -248.92
-25.1634 158.719 -279.628
-23.8597 158.743 -279.782
-22.6287 158.831 -279.857
-21.4009 158.969 -279.869
-20.1755 159.131 -279.833
-18.9654 159.28 -279.765
-17.7607 159.391 -279.668
-16.5463 159.461 -279.533
-15.4338 159.563 -279.371
-27.6681 159.078 -278.915
-26.3642 159.127 -279.18
-25.3314 159.553 -279.099
-24.2928 159.518 -279.261
-23.0893 159.582 -279.341
-21.8637 159.713 -279.347
-20.6157 159.901 -279.283
-19.3689 160.076 -279.2
-18.1515 160.204 -279.119
-16.9494 160.298 -279.023
-15.7644 160.346 -278.92
-14.5954 160.283 -278.834
-26.2426 160.959 -277.855
-25.2254 160.944 -278.033
-24.0163 160.981 -278.153
-22.7929 161.074 -278.179
-21.561 161.219 -278.136
-20.3835 161.412 -278.036
-29.797 159.46 -277.937
-28.7295 159.484 -278.343
-27.8686 159.847 -278.376
-27.078 159.771 -278.621
-26.0548 160.178 -278.52
-24.7424 160.247 -278.68
-23.5376 160.303 -278.772
-22.3163 160.416 -278.784
-21.0763 160.6 -278.714
-19.7299 160.913 -278.512
-18.4663 161.006 -278.454
-17.2537 161.13 -278.336
-16.0452 161.192 -278.245
-14.8262 161.183 -278.153
-13.5172 161.056 -278.019
-12.433 161.177 -277.632
-26.7697 161.349 -277.384
-19.4878 161.649 -277.864
-27.5169 161.402 -277.14
-18.9618 162.093 -277.425
-18.1777 162.337 -277.166
-30.4336 160.255 -277.099
-29.3067 160.251 -277.577
-28.3931 160.27 -277.891
-27.3332 160.622 -277.892
-18.717 161.678 -277.845
-17.5381 161.967 -277.538
-16.2852 162.033 -277.436
-15.0598 162.064 -277.348
-13.8217 162.035 -277.25
-12.5465 161.983 -277.059
-27.8938 161.794 -276.612
-17.3929 162.633 -276.837
-28.5227 161.91 -276.251
-21.8684 162.937 -275.943
-20.9424 163.052 -275.895
-17.0628 163.032 -276.357
-31.4348 160.903 -276.115
-30.3562 161.112 -276.38
-29.6701 160.895 -276.877
-28.5524 161.12 -277.069
-16.5109 162.831 -276.566
-15.2647 162.909 -276.432
-14.0218 162.911 -276.377
-12.8425 162.86 -276.304
-11.8086 162.775 -276.18
-28.6809 162.429 -275.513
-22.8506 162.901 -275.89
-20.3332 163.371 -275.436
-16.5547 163.354 -275.926
-24.3414 163.197 -275.227
-23.372 163.148 -275.395
-19.4202 163.527 -275.318
-18.3093 163.672 -275.26
-17.2753 163.764 -275.26
-16.5416 163.717 -275.404
-32.4051 161.437 -275.194
-31.4107 161.81 -275.181
-30.5174 161.786 -275.553
-29.4474 161.709 -276.092
-22.3131 163.371 -275.079
-21.1286 163.399 -275.226
-15.5453 163.76 -275.365
-14.147 163.747 -275.399
-12.9253 163.717 -275.383
-11.8395 163.57 -275.393
-28.5022 162.973 -274.776
-25.2956 163.254 -275.057
-27.6948 163.309 -274.506
-26.6603 163.48 -274.465
-25.7569 163.514 -274.545
-32.9768 162.307 -274.071
-31.7584 162.406 -274.35
-30.6606 162.543 -274.55
-29.4594 162.636 -274.866
-24.69 163.714 -274.258
-23.3485 163.625 -274.476
-22.255 163.838 -274.14
-21.2605 163.866 -274.279
-19.9936 163.888 -274.537
-18.6186 164.108 -274.443
-17.4103 164.253 -274.43
-16.2055 164.302 -274.53
-15.0469 164.589 -274.235
-14.141 164.539 -274.377
-12.9671 164.547 -274.391
-11.6813 164.525 -274.335
-33.9929 162.877 -273.176
-32.86 163.177 -273.156
-31.9557 163.146 -273.406
-30.8494 163.247 -273.569
-29.6734 163.39 -273.716
-28.3793 163.57 -273.85
-27.0307 163.919 -273.641
-25.7093 164.037 -273.645
-24.5568 164.263 -273.328
-23.6211 164.148 -273.51
-22.6934 164.087 -273.617
-21.5701 164.393 -273.181
-20.2164 164.479 -273.399
-18.9093 164.615 -273.506
-17.6378 164.783 -273.516
-16.415 164.935 -273.518
-15.2326 165.101 -273.466
-14.1226 165.235 -273.423
-13.024 165.301 -273.427
-11.8705 165.348 -273.385
-10.6927 165.405 -273.232
-77.9229 157.989 -272.734
-77.7504 158.081 -272.696
-34.9788 163.386 -272.347
-33.9886 163.748 -272.285
-33.112 163.757 -272.464
-32.0787 163.855 -272.557
-30.9965 163.955 -272.653
-29.8416 164.095 -272.728
-28.6344 164.262 -272.787
-27.3928 164.455 -272.777
-26.1454 164.627 -272.725
-24.9184 164.743 -272.651
-23.7334 164.746 -272.639
-22.5832 164.599 -272.763
-20.4003 165.106 -272.342
-19.0925 165.235 -272.51
-17.8298 165.383 -272.575
-16.5921 165.547 -272.583
-15.3833 165.717 -272.56
-14.2128 165.878 -272.525
-13.0797 166.002 -272.501
-11.9692 166.08 -272.479
-10.8942 166.112 -272.429
-9.94383 166.092 -272.342
-35.4653 164.214 -271.397
-34.3735 164.328 -271.609
-33.3228 164.437 -271.716
-32.2682 164.527 -271.796
-31.1556 164.659 -271.832
-29.9928 164.809 -271.859
-28.8025 164.964 -271.89
-27.61 165.113 -271.914
-26.4474 165.238 -271.926
-25.271 165.383 -271.877
-24.0063 165.472 -271.829
-22.6419 165.397 -271.853
-20.3798 165.949 -271.416
-19.1837 165.981 -271.582
-17.9553 166.091 -271.657
-16.7246 166.234 -271.672
-15.5042 166.397 -271.653
-14.3058 166.562 -271.619
-13.1407 166.707 -271.589
-12.0184 166.804 -271.571
-10.9535 166.832 -271.565
-9.97239 166.764 -271.57
-24.3915 167.194 -270.308
-23.3967 167.192 -270.368
-22.1812 167.234 -270.379
-35.8993 165.069 -270.482
-34.7284 165.087 -270.805
-33.5955 165.144 -270.981
-32.5017 165.206 -271.088
-31.3922 165.357 -271.099
-30.1971 165.556 -271.076
-28.9744 165.708 -271.096
-27.7743 165.843 -271.128
-26.6106 165.937 -271.181
-25.6459 165.93 -271.283
-24.4505 166.324 -271.021
-23.0127 166.325 -271.065
-21.4404 166.378 -271.02
-20.1683 166.807 -270.742
-19.2155 166.824 -270.793
-18.0379 166.918 -270.813
-16.8191 167.027 -270.811
-15.5959 167.167 -270.775
-14.383 167.319 -270.726
-13.1945 167.461 -270.68
-12.0457 167.564 -270.651
-10.9612 167.591 -270.653
-9.96486 167.513 -270.693
-24.8647 167.611 -269.937
-21.2317 167.412 -270.274
-30.4407 167.296 -269.604
-29.4421 167.354 -269.68
-28.2406 167.452 -269.737
-27.0389 167.546 -269.785
-25.844 167.596 -269.858
-20.6708 167.985 -269.867
-19.7899 168.226 -269.708
-18.6999 168.465 -269.562
-36.692 165.535 -269.736
-35.8463 165.876 -269.796
-35.0182 165.876 -270.034
-33.8845 165.943 -270.215
-32.7022 165.959 -270.386
-31.7349 165.926 -270.538
-30.5517 166.387 -270.305
-29.2059 166.507 -270.368
-27.9758 166.63 -270.408
-26.768 166.727 -270.464
-25.494 166.769 -270.559
-20.4404 167.396 -270.305
-19.4009 167.589 -270.194
-18.147 167.865 -270.028
-16.9092 167.908 -270.024
-15.6787 168.038 -269.946
-14.4536 168.166 -269.866
-13.2485 168.29 -269.786
-12.0759 168.381 -269.725
-10.9453 168.41 -269.693
-9.92411 168.313 -269.749
-30.9149 167.737 -269.212
-17.804 168.724 -269.389
-34.1823 167.766 -268.619
-33.1794 167.735 -268.858
-31.942 167.726 -269.073
-17.215 169.279 -268.96
-16.3479 169.565 -268.73
-36.9807 166.254 -268.883
-36.1274 166.42 -269.186
-35.3421 166.475 -269.422
-34.2792 166.848 -269.362
-32.9294 166.825 -269.632
-31.5892 166.821 -269.825
-17.022 168.72 -269.39
-15.7907 169.008 -269.153
-14.5449 169.085 -269.06
-13.3233 169.204 -268.919
-12.1367 169.259 -268.818
-10.9878 169.273 -268.732
-9.80259 169.23 -268.648
-34.548 168.231 -268.108
-15.4678 169.875 -268.476
-35.2161 168.283 -267.777
-21.5659 169.646 -267.866
-20.7983 169.835 -267.735
-14.9107 170.448 -267.991
-14.0693 170.759 -267.683
-37.102 166.948 -268.044
-36.3836 166.978 -268.506
-35.314 167.363 -268.608
-14.6803 169.909 -268.41
-13.4568 170.222 -268.06
-12.2365 170.196 -267.938
-11.1098 170.148 -267.819
-10.0385 170.07 -267.693
-9.09225 169.971 -267.551
-35.4483 168.837 -266.999
-22.3512 169.545 -267.818
-20.3874 170.013 -267.29
-13.2238 171.094 -267.325
-25.262 169.663 -267.09
-23.8233 169.453 -267.169
-22.6693 169.516 -267.268
-19.5906 170.284 -267.01
-18.6665 170.742 -266.614
-12.8474 171.598 -266.818
-37.2088 167.559 -267.143
-36.1992 167.827 -267.655
-21.8873 169.655 -267.397
-21.1305 169.808 -267.275
-12.3516 171.173 -267.074
-11.2649 171.017 -266.956
-10.2387 170.876 -266.797
-9.25279 170.679 -266.618
-35.4673 169.387 -266.239
-26.3909 170.041 -267.021
-18.1426 171.076 -266.265
-12.3159 171.874 -266.393
-34.9662 169.888 -265.875
-26.8932 170.156 -266.168
-17.6907 171.308 -265.787
-36.4338 168.617 -266.288
-25.9292 169.851 -266.456
-18.4947 170.825 -265.959
-11.4326 171.863 -266.054
-10.5142 171.538 -266.104
-9.55983 171.485 -265.646
-34.7477 170.162 -265.351
-27.8973 170.623 -265.911
-17.0168 171.672 -265.298
-12.2122 172.327 -265.729
-34.1777 170.428 -265.072
-29.0907 170.853 -264.993
-28.2935 170.658 -265.24
-16.234 172.035 -265.066
-15.3085 172.428 -264.692
-36.4085 169.139 -265.028
-35.5381 169.653 -265.411
-17.4677 171.31 -265.132
-11.3739 172.466 -265.077
-10.3529 172.107 -265.15
-33.7658 170.502 -264.543
-29.9221 171.001 -265.01
-14.5581 172.602 -264.248
-12.2953 172.683 -264.964
-32.6878 170.639 -264.302
-31.4261 170.862 -264.459
-30.4042 170.956 -264.486
-13.5212 172.671 -264.056
-12.3571 172.751 -264.197
-36.3232 169.326 -264.265
-35.7134 169.681 -264.432
-34.7248 170.153 -264.574
-29.6677 170.938 -264.5
-15.0848 172.379 -264.108
-11.5455 172.701 -264.406
-10.6761 172.512 -264.324
-39.0056 173.791 -259.182
-37.9762 173.632 -259.306
-37.2108 173.66 -259.143
-36.4913 173.492 -259.21
-5.73874 177.495 -258.668
-4.95334 179.092 -257.78
-41.5977 174.384 -258.38
-40.1691 174.188 -258.719
-39.3217 174.215 -258.709
-38.4418 174.074 -258.673
-6.45736 177.621 -258.327
-5.73693 178.031 -258.332
-4.77616 178.403 -258.252
-3.64633 178.476 -258.164
-5.19337 179.343 -257.224
-4.3718 179.276 -257.842
-42.6122 176.046 -257.16
-3.81832 179.721 -257.547
-2.89237 179.722 -257.317
-42.9037 174.79 -257.82
-42.045 175.313 -257.605
-40.9177 174.777 -258.051
-39.7967 174.563 -258.017
-5.8304 178.419 -257.838
-3.77448 179.135 -257.882
-3.10465 178.886 -257.812
-43.1098 176.5 -256.907
-42.0676 175.963 -257.008
-4.9526 179.821 -256.656
-2.19814 180.305 -256.857
-43.635 176.612 -256.745
-4.5122 180.34 -256.377
-1.998 180.822 -256.528
-43.9839 175.165 -257.222
-43.2257 175.825 -257.201
-41.0787 175.252 -257.266
-1.73458 180.365 -256.586
-44.1208 177.032 -256.386
-42.3565 176.528 -256.57
-4.32945 180.559 -255.872
-1.50198 180.925 -256.12
-44.6685 176.996 -256.126
-42.6391 177.166 -255.951
-3.93852 181.06 -255.691
-44.8606 175.486 -256.541
-44.2663 176.243 -256.625
-45.0841 177.304 -255.685
-42.9442 178.134 -255.388
-3.50159 181.711 -255.295
-1.32251 182.032 -255.288
-45.5356 177.184 -255.252
-2.95452 182.55 -255.255
-45.1894 176.471 -255.884
-0.623893 182.084 -254.523
-45.8787 177.63 -254.486
-42.9902 178.558 -254.71
-2.85375 183.361 -254.663
-1.07489 183.173 -254.332
-3.18847 182.558 -254.714
-0.570949 182.917 -253.751
-46.1647 178.264 -253.409
-43.0786 179.084 -253.841
-3.07926 183.861 -254.05
-0.943431 183.865 -253.509
-45.8134 179.154 -253.412
-3.31676 183.766 -253.558
-0.8412 184.163 -252.863
-3.21796 183.084 -254.07
-0.599836 183.551 -253.116
-45.6727 179.944 -252.664
-43.0727 179.637 -252.872
-3.64938 184.328 -252.799
-0.567217 183.823 -252.35
-0.8153 184.434 -251.758
-46.1014 179.062 -252.703
-45.7293 180.32 -251.406
-42.8344 180.039 -251.901
-4.17731 184.64 -251.772
-1.26262 185.086 -251.664
-42.5935 181.1 -251.524
-4.72751 184.886 -250.875
-46.1463 179.406 -251.795
-0.913722 184.622 -251.099
-45.1331 181.304 -250.778
-41.8466 181.114 -250.722
-5.28484 185.848 -250.592
-1.86852 185.909 -250.899
-44.3992 182.164 -250.69
-41.2548 181.857 -250.412
-40.7393 182.445 -250.107
-5.89754 185.868 -249.804
-2.28424 186.311 -250.152
-44.2085 182.362 -250.179
-39.8036 182.348 -249.497
-6.19961 186.555 -249.518
-3.02904 186.803 -249.944
-43.8251 182.489 -249.605
-39.7459 182.734 -249.167
-6.85537 186.279 -248.676
-4.00469 187.189 -249.299
-44.6281 181.925 -249.981
-2.37916 186.289 -249.587
-43.3668 182.63 -248.893
-39.1974 182.625 -248.643
-6.89295 186.54 -248.304
-4.61601 187.285 -248.924
-42.4902 182.849 -248.575
-41.3998 183.045 -248.633
-40.2796 182.968 -248.186
-39.3651 182.767 -248.295
-6.4186 186.81 -248.197
-5.64445 187.005 -248.136
-4.81117 187.093 -248.265
-43.9644 182.254 -248.799
-4.18698 187.08 -248.556
-40.5492 182.878 -247.463
-18.9924 156.922 -280.663
-25.5191 157.926 -279.949
-24.5477 157.911 -280.088
-23.3303 157.963 -280.221
-22.1046 158.072 -280.296
-20.8696 158.204 -280.314
-19.6614 158.376 -280.268
-18.4817 158.503 -280.173
-17.2639 158.572 -280.027
-15.9008 158.545 -279.783
-26.4067 156.812 -279.979
-25.2936 157.099 -280.189
-23.9504 157.093 -280.407
-22.7069 157.202 -280.548
-21.4902 157.324 -280.623
-20.1704 157.398 -280.638
-19.0841 157.764 -280.501
-17.9372 157.638 -280.395
-16.7585 157.871 -280.164
-16.104 157.869 -280.007
-26.1068 158.331 -279.673
-14.9441 159.057 -279.471
-27.92 158.311 -279.21
-27.0205 158.306 -279.456
-14.6583 159.601 -279.251
-28.7424 157.214 -279.062
-27.551 157.411 -279.533
-26.3475 157.636 -279.862
-14.0746 159.188 -279.192
-13.1679 159.089 -278.854
-28.5013 158.733 -278.85
-14.1009 159.83 -279.016
-29.9936 158.841 -278.165
-29.3177 158.756 -278.502
-13.6608 160.259 -278.636
-12.5935 160.297 -278.17
-29.9555 157.979 -278.366
-28.6997 158.062 -278.986
-13.3942 159.72 -278.805
-12.6982 159.542 -278.546
-30.7405 159.182 -277.609
-11.7671 160.848 -277.539
-31.4101 158.347 -277.495
-10.8606 161.027 -276.966
-31.3745 159.988 -276.879
-11.6861 161.561 -277.097
-32.0965 160.196 -276.402
-11.6016 162.203 -276.618
-32.5224 158.823 -276.714
-31.9126 159.423 -276.902
-10.8712 161.944 -276.46
-10.0725 161.549 -276.229
-32.437 160.67 -275.891
-11.0373 162.58 -276.075
-32.9107 160.823 -275.542
-33.0618 160.021 -275.953
-9.96302 162.554 -275.502
-33.5179 161.187 -274.929
-10.8996 163.249 -275.42
-34.2968 160.389 -275.067
-9.88849 163.702 -274.593
-8.80625 163.215 -274.357
-34.0019 161.973 -274.065
-10.8134 164.104 -274.6
-34.6599 162.13 -273.66
-10.6286 164.789 -273.888
-35.266 160.727 -274.258
-34.5874 161.377 -274.285
-9.90976 164.583 -273.86
-8.94273 164.284 -273.669
-8.01743 163.884 -273.448
-34.9966 162.58 -273.108
-10.0367 165.159 -273.365
-78.0782 157.703 -272.724
-77.8205 157.953 -272.756
-35.6423 162.66 -272.712
-21.2685 164.815 -272.411
-9.809 165.6 -272.851
-78.2352 157.264 -272.657
-36.079 161.114 -273.428
-35.4396 161.832 -273.466
-9.15692 165.236 -272.957
-7.93761 164.852 -272.671
-78.1797 157.74 -272.553
-77.6496 157.956 -272.6
-36.0812 163.292 -271.937
-21.7859 164.696 -272.509
-21.0466 165.214 -271.941
-9.24725 165.926 -272.335
-77.8542 157.988 -272.501
-77.6228 158.014 -272.456
-36.4425 162.17 -272.528
-21.5138 164.929 -272.149
-8.28481 165.969 -271.874
-7.19088 165.546 -271.668
-36.5035 164.117 -271.054
-21.9634 164.999 -272.115
-21.2188 165.598 -271.564
-9.09962 166.538 -271.629
-21.7492 165.471 -271.664
-76.1418 158.056 -270.758
-37.1522 163.149 -271.4
-21.4967 165.191 -271.866
-8.18835 166.935 -270.869
-7.3121 166.449 -270.919
-36.8001 164.761 -270.386
-9.05206 167.308 -270.764
-37.337 164.872 -269.971
-37.9274 163.479 -270.627
-37.3447 164.149 -270.562
-8.17261 167.767 -269.95
-7.33948 167.315 -270.039
-37.5679 165.42 -269.269
-9.02442 168.091 -269.857
-38.0349 164.401 -269.772
-8.18693 168.547 -269.026
-7.38476 168.127 -269.108
-37.7504 166.125 -268.38
-8.98044 168.859 -268.936
-8.87357 169.467 -268.163
-38.3145 165.212 -268.707
-8.2416 169.259 -268.139
-7.47671 168.899 -268.119
-37.8133 166.802 -267.508
-8.42483 169.791 -267.513
-38.4218 165.971 -267.69
-7.69659 169.702 -267.028
-37.7889 167.248 -266.927
-8.40771 170.315 -266.654
-37.6279 167.719 -266.251
-24.1962 169.203 -266.185
-22.914 169.267 -266.455
-21.7157 169.526 -266.664
-20.4306 169.898 -266.574
-19.3399 170.34 -266.226
-38.306 166.792 -266.683
-7.7604 170.403 -265.816
-37.2053 168.417 -265.366
-25.2556 169.517 -266.206
-18.936 170.276 -265.452
-8.47662 171.04 -265.405
-26.6929 169.655 -265.148
-25.9218 169.585 -265.743
-18.1195 170.842 -265.289
-8.97983 171.684 -264.81
-37.8425 167.865 -265.435
-7.84113 170.778 -265.145
-36.9607 168.775 -264.33
-27.5708 170.242 -265.206
-17.5839 170.825 -264.629
-9.50503 171.996 -264.78
-28.4362 170.287 -264.411
-16.7592 171.517 -264.613
-15.8211 172.052 -264.334
-37.6847 168.142 -264.747
-9.13416 172.016 -264.198
-36.3988 169.188 -263.728
-29.2143 170.716 -264.3
-15.2207 171.942 -263.714
-9.80114 172.289 -264.266
-35.9087 169.537 -263.794
-35.1143 169.818 -263.525
-33.7683 170.194 -263.731
-32.5951 170.309 -263.548
-31.6559 170.552 -263.761
-30.7865 170.751 -263.964
-29.9107 170.68 -263.959
-14.282 172.319 -263.632
-13.2513 172.373 -263.343
-12.3488 172.513 -263.437
-11.1927 172.545 -263.641
-10.067 172.377 -263.648
-29.2016 170.382 -263.901
-9.40943 172.21 -263.753
-35.3355 169.704 -262.994
-39.2238 173.238 -259.535
-38.2858 173.15 -259.612
-37.1638 173.121 -259.585
-36.5821 173.339 -259.425
-6.2664 176.617 -258.968
-40.3597 172.109 -259.692
-38.9841 172.398 -259.806
-37.5886 172.376 -259.848
-36.6714 172.409 -259.767
-9.66493 174.51 -259.145
-39.852 173.616 -259.254
-36.1551 173.213 -259.333
-6.58026 177.093 -258.696
-5.38467 176.962 -258.948
-41.8517 173.678 -258.742
-40.844 173.64 -259.022
-36.6832 173.517 -258.763
-36.1357 173.28 -259.078
-7.18616 176.948 -258.441
-4.79747 177.461 -258.738
-3.96664 177.798 -258.484
-42.6518 172.443 -258.937
-41.514 172.779 -259.205
-40.1191 172.996 -259.48
-7.77862 176.275 -258.566
-7.06662 176.602 -258.786
-4.79499 176.851 -258.967
-42.4827 174.092 -258.343
-37.5103 173.856 -258.601
-7.12428 177.29 -258.056
-3.29948 177.977 -258.259
-43.211 174.119 -258.043
-38.119 173.996 -258.054
-6.68594 177.778 -257.862
-2.99759 178.376 -257.988
-43.504 172.674 -258.421
-42.7797 173.378 -258.521
-2.76961 177.843 -258.029
-43.6901 174.491 -257.671
-38.8964 174.295 -257.916
-6.54637 178.024 -257.336
-2.2717 178.486 -257.466
-44.1257 174.533 -257.435
-39.5119 174.446 -257.276
-5.93279 178.671 -257.144
-1.8852 179.62 -256.883
-44.071 173.748 -257.703
-44.6032 174.651 -257.061
-40.2517 174.829 -257.125
-5.53605 179.119 -256.49
-1.25174 179.979 -256.304
-45.2419 174.795 -256.486
-40.8708 175.136 -256.404
-4.89776 179.883 -256.1
-45.0686 174.052 -256.878
-45.6151 175.469 -255.833
-41.7683 175.994 -256.321
-4.62983 180.019 -255.403
-0.826251 180.638 -255.632
-42.1092 176.431 -255.277
-4.0905 180.798 -255.283
-0.627013 181.3 -255.074
-0.364934 180.589 -255.132
-45.9842 176.484 -254.915
-42.6274 177.507 -254.988
-3.84479 181.074 -254.657
-0.225097 181.073 -254.592
-46.3911 177.168 -253.786
-42.7769 177.942 -254.074
-3.51398 181.922 -254.13
-0.171027 181.849 -253.846
-46.5694 177.651 -252.908
-42.9035 178.424 -253.135
-3.49757 182.864 -253.139
-0.225059 182.75 -252.938
-46.4713 178.404 -252.187
-42.8916 178.857 -252.189
-3.78111 183.376 -252.057
-0.216887 183.143 -252.015
-46.4811 178.863 -250.924
-42.6779 179.166 -251.273
-4.17785 183.745 -251.103
-0.505832 183.859 -251.291
-46.1427 179.689 -250.896
-42.348 180.211 -251.01
-4.67089 184.016 -250.229
-0.795464 184.352 -250.296
-45.8411 180.273 -250.18
-41.6694 180.227 -250.184
-5.32478 185.03 -250.042
-1.28804 185.13 -250.485
-40.94 181.01 -249.938
-40.0954 181.698 -249.63
-5.96467 185.059 -249.259
-46.2774 179.481 -250.234
-45.2438 181.118 -249.567
-39.2534 181.873 -249.174
-6.53518 185.768 -249.016
-1.84537 185.719 -249.629
-44.5827 181.8 -249.109
-38.9263 182.149 -248.801
-7.19796 185.518 -248.187
-2.47216 186.087 -248.712
-38.8332 181.738 -248.876
-44.3328 181.736 -248.263
-38.6962 182.271 -248.039
-7.28307 186.071 -247.975
-3.44003 186.719 -248.592
-43.3993 182.342 -248.154
-42.6041 182.613 -247.904
-41.6033 182.796 -247.732
-39.3429 182.696 -247.752
-6.96493 186.369 -247.653
-6.14272 186.576 -247.306
-4.9767 186.722 -247.342
-4.0601 186.732 -247.811
-38.2014 181.836 -247.855
-7.60195 185.549 -247.614
-40.9874 182.68 -247.036
-39.8938 182.846 -247.496
-40.1346 182.61 -246.899
-41.7018 182.46 -246.905
-39.4534 182.613 -247.207
-6.18293 186.219 -246.506
-5.41065 186.387 -246.57
-19.3107 156.052 -280.695
-19.9593 156.614 -280.795
-18.4643 156.299 -280.61
-26.3331 155.999 -279.934
-25.5884 156.279 -280.181
-24.4416 156.121 -280.389
-23.1515 156.331 -280.609
-21.9748 156.495 -280.736
-20.8754 156.627 -280.798
-17.8391 156.715 -280.464
-16.9482 157.124 -280.234
-16.2571 157.459 -280.065
-23.338 155.465 -280.494
-22.2362 155.666 -280.653
-21.1401 155.876 -280.75
-20.2923 156.1 -280.797
-17.7826 156.097 -280.396
-27.1026 156.505 -279.755
-15.428 157.583 -279.708
-28.7167 156.386 -278.968
-27.8977 156.509 -279.406
-14.5316 158.321 -279.382
-13.6185 158.595 -279.061
-29.4299 156.961 -278.696
-12.8583 158.436 -278.68
-30.1366 156.957 -278.255
-12.3791 158.981 -278.447
-30.8104 157.518 -277.921
-11.9795 159.546 -278.137
-31.5358 157.483 -277.432
-11.2723 160.055 -277.55
-11.4144 159.407 -277.804
-32.1528 158.034 -277.062
-10.4801 160.362 -277.007
-32.9235 158.101 -276.46
-9.96487 160.698 -276.515
-10.0854 160.188 -276.763
-33.4581 159.026 -276.043
-9.50799 161.172 -276.018
-33.6905 158.417 -275.867
-9.00214 161.188 -275.552
-33.9659 159.67 -275.585
-9.35267 161.738 -275.632
-34.426 159.782 -275.26
-8.80789 162.185 -274.945
-34.3661 159.12 -275.338
-8.87221 161.621 -275.287
-34.8925 159.929 -274.848
-8.27043 162.626 -274.342
-35.3763 160.098 -274.428
-7.83932 163.023 -273.787
-35.3384 159.412 -274.455
-7.89862 162.495 -274.075
-35.8085 160.279 -273.976
-7.41184 163.57 -273.229
-78.6367 156.669 -272.522
-36.3661 160.49 -273.377
-36.1188 159.759 -273.657
-6.90579 163.638 -272.767
-78.5462 157.217 -272.532
-78.1236 156.856 -272.479
-36.8163 161.105 -272.722
-7.28933 164.143 -272.814
-77.8124 157.563 -272.573
-6.83856 164.627 -272.123
-79.0369 156.527 -272.338
-6.8077 164.074 -272.481
-78.5321 157.366 -272.247
-77.396 157.692 -272.098
-37.493 161.941 -271.777
-6.46177 165.215 -271.43
-78.1262 157.663 -272.105
-77.6073 157.854 -272.005
-76.2939 157.981 -270.885
-78.9962 156.817 -272.107
-37.976 161.362 -271.49
-5.89174 165.248 -270.846
34.5984 169.121 -270.151
-76.3449 157.952 -270.771
-76.1295 157.955 -270.747
-37.8887 162.771 -271.103
-6.50013 165.915 -270.872
-76.1747 157.888 -270.589
-38.2387 162.963 -270.692
-76.923 157.723 -271.169
-38.3442 162.214 -270.854
-5.83433 166.048 -270.122
33.5569 169.647 -269.42
-38.5596 163.298 -270.053
-6.54178 166.745 -270.099
-74.3186 158.439 -269.481
-74.2598 158.48 -269.482
-38.9666 162.436 -269.984
-5.87228 166.898 -269.303
-38.8039 164.209 -269.011
-6.60036 167.573 -269.211
-39.1868 163.219 -269.191
-5.95509 167.701 -268.373
-38.9765 164.993 -267.947
-6.69207 168.357 -268.227
-39.3943 163.978 -268.209
-6.07239 168.438 -267.322
-39.0527 165.744 -266.748
-6.82643 169.097 -267.12
-39.5309 164.685 -267.151
-6.20379 169.086 -266.156
-38.8201 166.581 -265.754
-6.96769 169.81 -265.791
-38.2765 167.299 -265.723
-24.0614 168.51 -265.206
-23.0648 168.732 -265.582
-22.0176 168.992 -265.788
-20.952 169.307 -265.793
-19.8867 169.732 -265.635
-6.31897 169.537 -265.149
-38.1991 167.609 -264.985
-25.0323 169.055 -265.512
-19.285 169.515 -264.831
-7.39943 170.493 -264.902
-26.6708 168.997 -264.417
-25.8523 168.997 -264.959
-18.3883 170.148 -264.712
-7.89203 170.996 -264.51
-38.6059 167.099 -265.106
-38.065 167.813 -264.372
-27.4396 169.662 -264.475
-17.6753 170.033 -264.048
-8.51476 171.542 -264.174
-37.5974 168.22 -263.911
-28.9779 169.68 -263.581
-28.0732 169.535 -263.93
-16.8509 170.742 -263.979
-16.0247 171.405 -263.858
-38.4955 167.342 -264.435
-7.97521 171.187 -263.707
-36.8151 168.705 -263.217
-29.7141 170.171 -263.544
-15.2715 171.269 -263.289
-8.94421 171.938 -263.661
-35.7764 169.347 -263.061
-34.3357 169.587 -262.828
-33.0112 169.765 -262.998
-31.8495 169.981 -263.161
-30.6833 170.23 -263.432
-14.5162 171.691 -263.169
-13.5449 171.881 -262.954
-12.4537 172.021 -262.796
-11.3197 172.15 -262.82
-10.2236 172.156 -262.965
-9.36975 172.053 -263.239
-35.3106 169.556 -262.759
-35.0453 169.753 -262.945
-35.2205 169.72 -262.82
-35.0204 169.605 -262.71
-40.7957 171.253 -259.792
-39.433 171.218 -260.017
-38.0257 171.459 -260.045
-36.6372 171.439 -259.915
-9.75948 174.251 -259.155
-38.3765 170.538 -260.241
-37.2789 170.658 -260.177
-36.573 170.674 -260.078
-8.26426 174.087 -259.418
-41.3121 171.901 -259.552