<VTKFile type="UnstructuredGrid" version="0.1" byte_order="BigEndian">
  <UnstructuredGrid>
    <Piece NumberOfPoints="12770" NumberOfCells="25528">
      <PointData>
        <DataArray type="Float64" Name="position" NumberOfComponents="3" format="ascii">
-48.469 254.132 -334.678
-48.5857 254.959 -334.16
-48.7721 255.732 -333.611
-48.383 255.775 -333.552
-48.5227 256.294 -333.194
-46.4808 250.521 -336.517
-13.9227 253.835 -336.174
-47.6281 251.974 -335.774
-12.3836 254.842 -335.532
-48.4728 253.45 -335.037
-48.0692 252.6 -335.423
-47.7204 252.305 -335.469
-11.3255 256.363 -334.721
-48.8019 254.05 -334.628
-48.1688 253.52 -334.862
-10.7287 257.521 -333.77
-49.0616 254.889 -333.953
-48.2091 254.428 -334.256
-48.2639 255.233 -333.854
-10.8024 257.807 -333.52
-49.1462 255.727 -333.142
-48.0917 255.643 -333.357
-48.8042 256.24 -333.215
-11.6479 258.928 -332.051
-48.6606 256.511 -333.025
-48.0139 256.281 -332.684
-48.4416 256.642 -332.667
-48.8146 256.456 -332.767
-48.0147 256.916 -331.879
-47.4965 257.079 -331.198
-46.6103 250.494 -336.474
-13.7631 253.69 -336.179
-44.2425 249.095 -336.665
-43.7626 249.058 -336.639
-15.3001 252.777 -336.159
-14.6173 253.04 -336.224
-46.6334 250.641 -336.449
-46.3644 250.369 -336.467
-14.2691 253.569 -336.139
-13.5989 253.922 -336.084
-47.451 251.585 -336.002
-46.4761 250.544 -336.321
-13.9268 253.938 -335.978
-12.4112 254.595 -335.601
-47.1111 250.977 -336.126
-15.0061 253.234 -336.037
-13.1712 254.234 -335.753
-47.7809 251.799 -335.882
-47.3189 251.555 -335.867
-12.6949 254.742 -335.463
-12.1372 254.91 -335.443
-48.2136 252.162 -335.645
-12.3261 255.018 -335.364
-11.3492 256 -334.848
-48.2086 251.427 -335.782
-11.8894 255.393 -335.052
-48.7444 252.762 -335.139
-47.4375 251.926 -335.471
-11.6017 256.303 -334.519
-11.1519 256.398 -334.694
-47.7309 252.663 -334.867
-11.2545 256.625 -334.529
-10.797 257.294 -334.017
-49.1231 251.718 -335.172
-10.9338 256.809 -334.307
-49.3057 253.814 -334.281
-47.9648 253.627 -334.395
-10.9757 257.557 -333.804
-10.6014 257.042 -333.904
-49.5539 252.689 -334.464
-11.3231 257.055 -334.037
-49.5588 254.665 -333.431
-47.9067 254.151 -333.727
-10.9812 257.934 -333.419
-10.5282 257.555 -333.27
-48.0063 255.005 -333.552
-11.6377 258.55 -332.363
-10.8455 258.058 -333.025
-49.8814 253.594 -333.615
-11.3275 257.969 -333.08
-49.651 255.301 -332.494
-47.7904 255.538 -332.799
-11.8782 258.758 -331.868
-11.3915 258.851 -332.082
-11.6584 259.123 -331.719
-50.0381 254.352 -332.731
-10.9994 258.464 -332.42
-49.12 256.245 -332.09
-47.4505 256.035 -331.939
-48.5814 256.785 -332.12
-47.4743 256.697 -331.634
-11.8623 259.211 -331.325
-48.307 257.041 -331.522
-47.0369 256.92 -330.798
-47.8482 257.175 -331.043
-47.2602 257.193 -330.489
-48.6973 256.805 -331.541
-13.4343 260.365 -329.526
-47.078 257.229 -329.798
-44.7664 248.923 -336.638
-43.7915 248.68 -336.783
-15.5755 252.181 -336.101
-14.8194 252.43 -336.2
-42.6599 248.329 -336.789
-41.8527 248.202 -336.685
-41.4327 248.176 -336.532
-44.6616 249.24 -336.551
-43.0841 248.821 -336.603
-15.774 252.551 -335.997
-14.1807 252.715 -336.202
-46.9094 250.326 -336.354
-46.3632 250.077 -336.409
-44.2069 249.237 -336.354
-43.4772 249.083 -336.432
-15.5465 252.909 -335.958
-13.7819 253.208 -336.153
-13.0912 253.669 -335.959
-46.9446 249.56 -336.235
-45.4198 249.47 -336.268
-13.5611 252.644 -336.063
-47.6118 250.482 -336.122
-46.0714 250.154 -336.185
-15.3528 253.125 -335.625
-12.3853 254.104 -335.684
-48.229 250.659 -335.916
-46.3962 250.55 -335.673
-14.5567 253.659 -335.698
-13.8562 254.101 -335.588
-11.7358 254.597 -335.342
-48.281 249.929 -335.862
-11.8396 253.969 -335.486
-48.7732 250.809 -335.599
-47.0168 251.277 -335.536
-13.3224 254.504 -335.141
-11.249 255.365 -334.982
-49.4368 250.963 -335.102
-12.5722 255.078 -335.016
-10.9738 256.039 -334.691
-49.2348 250.19 -335.334
-10.7664 255.442 -334.682
-49.8466 251.632 -334.501
-47.2234 251.728 -334.834
-12.2504 255.705 -334.393
-10.511 256.104 -334.209
-47.4478 252.248 -334.002
-50.19 252.512 -333.655
-47.7372 253.209 -333.894
-11.9013 256.738 -333.582
-10.209 256.662 -333.46
-50.3682 253.365 -332.774
-47.7 253.722 -332.984
-11.9254 257.761 -332.496
-10.1273 257.22 -332.703
-47.7438 254.683 -332.911
-50.4096 254.091 -331.836
-47.4684 255.186 -332.034
-12.1409 258.174 -331.737
-10.4845 258.097 -332.128
-50.053 254.874 -331.97
-10.9775 258.86 -331.59
-49.6935 255.585 -331.34
-47.0738 255.666 -331.166
-12.2376 258.89 -331.076
-11.4853 259.315 -331.082
-47.0162 256.415 -331.085
-13.3147 260.056 -329.609
-12.0249 259.45 -330.705
-50.193 254.828 -331.299
-11.0182 259.145 -330.938
-48.9972 256.464 -330.95
-46.668 256.636 -330.398
-13.5261 260.311 -329.453
-13.1751 260.28 -329.535
-48.3556 257.01 -330.871
-47.7225 257.198 -330.143
-13.5166 260.421 -329.245
-12.6633 259.624 -330.053
-47.308 257.207 -329.399
-46.602 256.967 -329.833
-46.6978 257.095 -329.064
-47.7976 257.09 -329.407
-46.2027 256.94 -329.066
-13.7518 260.328 -328.731
-13.5223 260.5 -328.816
-42.673 247.912 -336.926
-41.9714 247.801 -336.803
-41.4094 247.939 -336.648
-42.723 247.309 -336.891
-41.7238 247.228 -336.74
-43.3867 248 -336.909
-41.0544 247.894 -336.445
-47.2506 248.312 -335.978
-45.8302 248.665 -336.418
-44.619 248.073 -336.725
-41.9647 248.434 -336.28
-41.1202 248.071 -336.251
-15.9851 251.453 -335.966
-14.9706 251.554 -336.072
-13.8939 252.047 -336.008
-43.8486 247.396 -336.886
-16.5656 250.624 -335.804
-15.6084 250.746 -336.027
-14.7285 250.765 -335.984
-47.906 249.135 -335.936
-42.8911 248.887 -336.268
-16.1154 252.047 -335.791
-13.0509 252.26 -335.83
-48.4495 249.26 -335.765
-44.4266 249.238 -335.499
-43.4481 249.034 -335.957
-15.8935 252.591 -335.64
-12.7538 252.846 -335.795
-12.0924 253.458 -335.574
-48.5497 248.627 -335.567
-12.3106 252.158 -335.519
-48.999 249.387 -335.482
-45.5553 249.827 -335.521
-15.7151 252.72 -335.062
-11.2048 253.717 -335.106
-49.7107 249.63 -335.016
-45.9906 250.133 -334.74
-14.9831 253.345 -335.029
-14.1809 253.95 -335.074
-10.9031 254.675 -334.878
-50.4142 248.514 -334.523
-49.634 248.766 -335.021
-50.0492 250.497 -334.577
-46.6763 250.905 -334.809
-13.7416 254.25 -334.393
-10.3203 255.025 -334.332
-12.9846 254.947 -334.348
-50.4799 249.382 -334.393
-50.5031 251.415 -333.662
-47.0177 251.338 -333.96
-12.6079 255.603 -333.526
-9.93268 255.594 -333.64
-47.3126 251.806 -333.117
-50.8832 250.331 -333.627
-50.7403 252.322 -332.595
-47.569 252.729 -333.065
-12.3309 256.448 -332.658
-9.68104 256.258 -332.717
-51.0886 251.204 -332.715
-9.29279 256.29 -331.772
-50.6801 253.211 -331.965
-47.5695 253.189 -331.992
-12.2827 257.226 -331.862
-9.83111 257.279 -331.747
-47.5461 254.242 -332.088
-9.41133 256.946 -331.034
-50.708 253.555 -331.258
-47.2328 254.669 -331.105
-12.3875 257.893 -331.168
-10.1484 258.03 -331.283
-47.4538 253.851 -331.358
-50.4702 254.276 -330.684
-46.77 255.285 -330.285
-12.6703 258.535 -330.389
-10.5401 258.673 -330.769
-50.0453 255.118 -330.581
-46.6584 256.09 -330.419
-13.2072 259.182 -329.554
-11.1209 259.313 -330.291
-49.4062 255.847 -329.842
-46.3336 256.404 -329.763
-13.6208 260.017 -329.16
-11.8487 259.701 -329.848
-48.4675 256.788 -329.905
-46.0669 256.633 -329.17
-13.9247 259.904 -328.411
-12.6803 260.169 -329.381
-46.3944 255.776 -329.731
-11.2373 259.461 -329.606
-48.1097 256.84 -329.018
-45.9208 256.732 -328.716
-13.9015 260.18 -328.163
-13.2013 260.457 -329.087
-47.3534 256.941 -328.554
-46.576 256.884 -328.25
-46.1467 256.856 -328.507
-13.632 260.372 -328.297
-13.2338 260.43 -328.517
-48.6714 256.447 -329.071
-12.8359 260.343 -328.808
-32.5969 239.453 -342.42
-31.7007 239.387 -342.34
-34.808 240.103 -341.998
-33.5923 239.928 -342.129
-32.8365 240.049 -341.979
-32.0889 240.012 -341.815
-24.9962 240.864 -341.924
-24.2499 241.052 -341.951
-68.8959 237.156 -341.328
-68.1734 237.253 -341.37
-67.6472 237.258 -341.355
-35.6973 240.581 -341.508
-34.842 240.797 -341.417
-34.126 240.587 -341.598
-33.1392 240.605 -341.351
-24.6445 241.412 -341.466
-23.7336 241.555 -341.549
-23.0419 241.957 -341.114
-69.3025 237.384 -341.005
-68.5106 237.569 -341.041
-67.5575 237.624 -340.945
-36.0419 241.039 -340.94
-35.2943 241.166 -340.922
-34.293 241.137 -340.902
-23.9804 241.951 -340.85
-69.0104 237.79 -340.561
-68.0291 237.997 -340.48
-66.9917 238.092 -340.261
-42.8433 246.372 -336.733
-41.8846 246.658 -336.676
-43.7079 245.131 -336.483
-42.9642 245.51 -336.547
-43.5307 246.835 -336.862
-41.2523 246.88 -336.566
-44.0662 246.879 -336.829
-40.9783 247.327 -336.418
-17.0386 249.693 -335.704
-16.0606 249.815 -335.984
-14.9435 250.072 -335.95
-44.1127 246.114 -336.63
-40.8508 246.754 -336.356
-17.5405 248.88 -335.59
-16.7154 249.035 -335.91
-15.9582 249.076 -336.037
-44.6867 247.083 -336.679
-40.6319 247.652 -336.055
-17.1775 250.295 -335.36
-14.1311 250.3 -335.809
-48.3242 247.542 -335.335
-47.171 247.119 -335.73
-45.9314 247.473 -336.305
-41.5926 248.232 -335.431
-40.8035 247.861 -335.647
-16.9118 250.833 -335.527
-13.7613 250.999 -335.768
-12.6583 251.528 -335.502
-46.4095 246.486 -335.937
-45.399 246.418 -336.345
-40.1517 247.392 -335.549
-13.3576 250.183 -335.528
-49.1542 248.046 -335.141
-42.5318 248.682 -335.748
-16.5726 251.339 -335.603
-11.7695 251.738 -335.187
-50.7762 247.968 -334.204
-49.9232 247.877 -334.688
-44.101 248.825 -334.525
-43.1741 248.692 -335.093
-16.3489 251.915 -335.08
-11.3305 252.43 -335.065
-49.2215 247.468 -334.907
-42.2133 248.413 -335.153
-16.9516 250.964 -335.112
-11.236 251.628 -334.903
-51.0587 248.649 -334.054
-45.0849 249.331 -334.424
-15.9551 252.359 -334.637
-10.3985 253.034 -334.562
-45.8194 249.781 -333.954
-15.3376 252.764 -334.149
-14.4625 253.627 -334.345
-10.3005 253.979 -334.466
-51.3678 248.122 -333.821
-44.5182 248.847 -334.086
-16.1429 251.92 -334.165
-9.48907 253.184 -333.838
-8.71696 252.942 -333.203
-51.3315 249.371 -333.556
-46.4355 250.426 -333.805
-14.0106 253.932 -333.897
-9.68601 254.44 -333.771
-13.4324 254.416 -333.39
-51.6846 248.603 -333.495
-46.0541 249.799 -333.297
-15.0228 252.594 -333.146
-14.368 253.389 -333.41
-8.92263 253.96 -333.004
-51.616 250.152 -332.56
-46.9409 250.963 -332.98
-12.8133 255.249 -332.578
-9.35482 255.093 -333.04
-47.2569 251.43 -332.347
-9.18719 255.573 -332.384
-51.9775 249.138 -332.884
-13.2162 254.342 -332.371
-8.89631 254.849 -332.445
-51.4683 251.155 -331.708
-47.4758 252.175 -332.224
-12.5409 255.951 -331.694
-8.83591 255.414 -331.759
-51.1365 251.845 -331.914
-47.3741 251.562 -331.53
-12.8779 254.742 -331.728
-50.9775 252.663 -331.232
-47.5119 252.369 -331.246
-12.4499 256.901 -331.199
-8.94353 256.196 -330.847
-9.27769 257.018 -330.309
-51.2935 251.859 -331.198
-47.4444 251.739 -330.723
-50.7934 253.453 -330.505
-47.4595 253.187 -330.893
-12.5941 257.341 -330.507
-9.82461 257.797 -330.468
-47.2999 253.904 -330.676
-9.42837 257.413 -329.656
-50.6079 253.869 -329.554
-46.9723 254.348 -330.052
-12.9168 257.911 -329.717
-10.2222 258.466 -329.944
-50.1524 254.828 -329.707
-13.3612 258.333 -328.897
-49.7434 255.151 -328.739
-46.4402 254.929 -329.198
-13.7145 259.288 -328.697
-10.6948 258.986 -329.548
-46.0419 255.924 -328.963
-45.8331 256.392 -328.629
-14.0687 259.298 -327.829
-11.3679 259.467 -328.821
-50.2522 254.462 -328.882
-49.0048 255.875 -328.452
-45.8406 256.461 -328.186
-14.0727 259.784 -327.615
-12.2367 260.013 -328.818
-48.1296 256.486 -328.176
-47.4761 256.641 -327.768
-46.8095 256.566 -327.402
-46.1383 256.534 -327.75
-13.7673 260.053 -327.596
-13.2599 260.171 -327.803
-12.7103 260.156 -328.187
-46.9415 256.348 -326.664
-38.03 236.394 -343.489
-36.7943 236.35 -343.655
-35.6939 236.357 -343.728
-29.5926 237.314 -343.402
-28.2908 237.279 -343.441
-27.2184 237.323 -343.462
-32.8068 238.689 -342.874
-31.9049 238.728 -342.794
-39.0201 236.97 -343.002
-37.9822 237.313 -343.046
-37.0896 237.206 -343.234
-35.9826 237.223 -343.338
-34.7213 237.156 -343.446
-33.5715 237.255 -343.453
-32.4969 237.777 -343.251
-30.8894 237.975 -343.091
-29.6191 238.276 -342.892
-28.6042 238.152 -342.983
-27.4704 238.135 -343.063
-26.266 238.158 -343.144
-24.9113 238.555 -343.058
-23.6263 238.773 -342.995
-22.3895 238.909 -342.901
-21.1975 239.015 -342.791
-20.0986 239.095 -342.686
-19.2982 239.127 -342.619
-33.4007 239.136 -342.654
-31.0895 238.961 -342.545
-35.3268 239.343 -342.424
-34.3481 239.214 -342.569
-25.4816 240.289 -342.173
-24.6957 240.385 -342.287
-39.5588 237.979 -342.263
-38.3797 237.992 -342.59
-37.3442 238.046 -342.784
-36.4279 237.969 -342.958
-35.2783 238.325 -342.911
-33.7751 238.239 -343.051
-30.1223 238.977 -342.411
-28.938 238.924 -342.445
-27.7454 238.962 -342.531
-26.7133 238.934 -342.702
-25.5222 239.45 -342.601
-24.0836 239.789 -342.582
-22.8119 239.879 -342.493
-21.591 239.983 -342.328
-20.3996 239.995 -342.203
-19.2687 239.946 -342.118
-35.7505 239.863 -342.061
-30.9168 239.639 -341.886
-25.6634 240.657 -341.82
-23.9463 240.648 -342.235
-69.2133 236.843 -341.315
-68.5525 236.814 -341.426
-67.9416 237.034 -341.498
-36.4249 240.001 -341.801
-31.4735 240.147 -341.399
-25.3034 241.087 -341.582
-23.6023 241.125 -341.964
-22.9869 241.415 -341.691
-40.4346 238.453 -341.619
-39.4862 238.914 -341.625
-38.5778 238.86 -341.973
-37.6678 238.743 -342.312
-36.4684 239.026 -342.397
-30.0854 239.498 -341.892
-29.3721 239.466 -341.884
-28.1649 239.65 -341.795
-26.5686 239.918 -342.031
-23.2305 240.685 -342.169
-22.1329 241.004 -341.815
-20.8278 240.965 -341.631
-19.6583 240.851 -341.546
-18.6996 240.754 -341.465
-69.4484 237.049 -341.193
-67.5792 237.058 -341.404
-36.6665 240.563 -341.217
-32.0711 240.494 -341.003
-25.2446 241.314 -341.301
-22.3427 241.783 -341.291
-32.7689 240.902 -340.679
-25.0384 241.591 -340.814
-22.3092 242.195 -340.788
-68.755 236.461 -341.208
-39.9433 239.427 -340.936
-38.7218 239.67 -341.22
-37.475 239.682 -341.676
-31.4353 240.302 -340.987
-27.2558 240.28 -341.176
-25.9714 240.902 -341.194
-21.3631 241.963 -340.879
-20.0421 241.713 -340.876
-18.9713 241.489 -340.865
12.3663 244.363 -339.903
-69.7853 237.129 -340.892
-67.1768 237.261 -341.046
-36.6147 241.047 -340.601
-33.4611 241.184 -340.402
-24.5055 241.986 -340.339
-22.9786 242.344 -340.305
-69.8274 237.467 -340.473
-66.5596 237.647 -340.426
-35.8876 241.36 -340.368
-34.9968 241.49 -340.281
-34.2596 241.474 -340.18
-23.8873 242.212 -340.127
-70.2027 236.96 -340.423
-66.7231 237.277 -340.656
-40.0648 240.01 -340.114
-39.0079 240.254 -340.348
-37.6481 240.554 -340.648
-32.8975 241.062 -340.266
-25.0347 241.765 -340.149
-21.8804 242.479 -340.209
-21.1825 242.49 -340.18
-20.3666 242.435 -340.062
-19.2659 242.163 -340.17
-69.4862 237.843 -340.076
-66.1309 238.084 -339.904
-68.6242 238.147 -339.843
-67.4511 238.349 -339.78
-66.3903 238.391 -339.597
-70.0164 237.635 -339.913
-65.5608 238.246 -339.416
-39.3482 240.559 -339.491
-38.1401 240.869 -339.601
-36.7671 241.235 -339.782
-35.5943 241.542 -339.646
-34.7018 241.599 -339.636
-22.3011 242.598 -339.486
-21.1558 242.698 -339.51
-43.8837 244.303 -336.267
-42.9692 244.686 -336.354
-44.5104 245.082 -336.371
-42.2761 245.043 -336.351
-41.8689 245.744 -336.415
-41.0883 246.311 -336.335
-17.7755 248.277 -335.467
-17.1133 248.205 -335.736
-16.1743 248.446 -335.962
-44.7449 244.407 -336.166
-41.5738 244.965 -336.123
-16.3163 247.658 -335.8
-15.2286 247.924 -335.854
-14.0974 247.859 -335.666
-45.0972 245.637 -336.319
-40.3494 246.397 -335.901
-17.9712 248.574 -335.333
-15.4451 248.689 -335.997
-46.6987 245.866 -335.616
-45.9654 245.619 -335.949
-40.1247 247.018 -335.727
-17.9057 248.896 -335.321
-15.151 249.291 -335.959
-13.7344 249.341 -335.571
-45.3129 244.918 -336.091
-14.5642 248.608 -335.825
-13.6783 248.408 -335.564
-47.1112 246.323 -335.522
-39.6979 246.917 -335.193
-17.6674 249.396 -335.163
-12.7089 249.716 -335.173
-48.9207 246.722 -334.674
-47.8672 246.502 -335.146
-40.6716 247.568 -334.705
-39.9387 247.222 -334.976
-12.4058 250.441 -335.14
-11.3807 251.013 -334.794
-11.9235 249.65 -334.75
-49.6701 247.188 -334.548
-41.5852 248.04 -334.81
-17.3779 250.131 -334.51
-10.5587 251.429 -334.469
-51.2502 247.443 -333.651
-50.369 247.28 -334.183
-43.2485 248.207 -333.992
-42.2709 248.126 -334.493
-16.775 251.118 -334.324
-9.83725 252.058 -334.118
-8.84672 252.227 -333.424
-9.67121 251.147 -333.885
-51.7858 248 -333.413
-44.1144 248.532 -333.865
-16.3713 251.239 -333.416
-8.30635 252.449 -332.933
-44.7295 248.695 -333.427
-15.6823 251.992 -333.307
-7.80436 252.398 -332.374
-52.2275 248.376 -332.887
-45.5047 249.285 -333.379
-15.1429 252.037 -332.451
-8.24695 253.172 -332.567
-45.9583 249.442 -332.56
-14.4565 252.771 -332.45
-13.7647 253.593 -332.483
-52.5709 247.952 -332.471
-7.67155 253.223 -331.749
-52.3564 248.884 -332.515
-46.4901 250.165 -332.715
-13.307 253.798 -331.668
-8.32271 254.326 -331.824
-52.3071 249.432 -331.97
-52.6538 248.568 -332.103
-7.68739 253.983 -331.083
-51.9856 250.407 -331.178
-46.9823 250.709 -331.853
-12.9279 254.159 -330.963
-8.51325 255.306 -331.084
-12.6728 255.088 -331.071
-52.4492 249.734 -331.035
-51.561 251.423 -330.536
-47.2458 251.011 -330.802
-12.5647 255.997 -330.618
-8.51881 255.739 -330.307
-51.2472 252.172 -330.528
-47.3539 251.398 -329.951
-51.0054 252.821 -329.782
-47.4045 252.382 -330.126
-12.7023 256.644 -329.756
-8.90107 256.59 -329.576
-47.2207 253.402 -329.977
-9.33364 257.348 -328.953
-51.3261 252.041 -329.869
-50.7756 253.315 -329.021
-46.8142 253.783 -329.087
-13.0095 257.182 -328.97
-9.95111 258.128 -329.092
-13.4204 257.563 -328.165
-9.55565 257.596 -328.257
-50.4429 253.745 -328.36
-46.3321 254.096 -328.156
-13.8062 258.541 -328.045
-10.6311 258.821 -328.525
-49.9778 254.53 -328.137
-45.9789 255.082 -328.148
-45.7807 255.885 -328.101
-14.1743 258.605 -327.168
-11.1223 259.016 -327.712
-49.2417 255.052 -327.519
-45.8008 255.954 -327.433
-14.306 259.189 -326.846
-11.9694 259.675 -327.927
-48.4685 255.857 -327.475
-47.5864 256.231 -327.017
-46.1086 256.041 -326.795
-14.0092 259.555 -326.722
-13.3506 259.718 -326.929
-12.6344 259.757 -327.321
-47.1344 256.159 -326.332
-46.532 256.268 -326.585
-46.7075 256.125 -326.161
-47.4599 255.877 -326.216
-14.3556 259.23 -326.233
-29.9645 270.529 -314.394
-30.0394 271.243 -313.978
-30.313 271.784 -313.529
-29.9283 271.957 -313.375
-32.1239 227.1 -350.698
-30.9197 227.125 -350.826
-29.7638 227.205 -350.884
-28.5862 227.312 -350.902
-27.3881 227.442 -350.894
-26.1829 227.584 -350.868
-24.981 227.727 -350.827
-23.8008 227.864 -350.771
-22.7105 227.975 -350.707
-34.3256 227.593 -349.998
-33.1425 227.598 -350.234
-32.112 228.001 -350.135
-31.1884 227.971 -350.259
-30.0622 228.043 -350.315
-28.8936 228.155 -350.331
-27.7076 228.287 -350.326
-26.5141 228.429 -350.308
-25.3186 228.573 -350.281
-24.1248 228.711 -350.246
-22.9355 228.826 -350.204
-21.6956 228.863 -350.169
-20.4753 229.198 -349.911
-34.9532 228.587 -349.234
-33.6539 228.557 -349.494
-32.4957 228.664 -349.589
-31.4 228.8 -349.615
-30.2864 228.896 -349.645
-29.1205 229.014 -349.652
-27.934 229.148 -349.646
-26.7424 229.292 -349.634
-25.5502 229.44 -349.617
-24.3565 229.587 -349.594
-23.1581 229.725 -349.564
-21.9473 229.846 -349.519
-20.7367 229.986 -349.423
-19.5647 230.081 -349.3
-36.0849 229.366 -348.485
-34.888 229.63 -348.507
-33.9306 229.505 -348.733
-32.785 229.529 -348.856
-31.6322 229.628 -348.896
-30.4752 229.753 -348.896
-29.2953 229.886 -348.885
-28.0977 230.025 -348.875
-26.8984 230.168 -348.868
-25.7039 230.317 -348.862
-24.5123 230.469 -348.852
-23.3184 230.621 -348.835
-22.1192 230.765 -348.805
-20.9213 230.894 -348.754
-19.7488 230.986 -348.677
-18.6232 231.025 -348.565
-37.2015 230.112 -347.703
-36.0567 230.425 -347.702
-35.1415 230.37 -347.88
-34.069 230.405 -347.98
-32.9607 230.424 -348.07
-31.8119 230.49 -348.11
-30.6469 230.608 -348.096
-29.4513 230.763 -348.055
-28.2312 230.915 -348.032
-27.013 231.056 -348.035
-25.8085 231.2 -348.043
-24.6149 231.352 -348.048
-23.425 231.51 -348.047
-22.2337 231.668 -348.034
-21.0428 231.808 -348.005
-19.8689 231.902 -347.961
-18.7605 231.911 -347.909
-17.8223 231.828 -347.85
-38.2242 230.743 -346.966
-37.2107 231.143 -346.933
-36.3176 231.137 -347.09
-35.2717 231.216 -347.164
-34.1931 231.263 -347.231
-33.0654 231.311 -347.277
-31.9205 231.361 -347.306
-30.7943 231.433 -347.305
-29.6275 231.618 -347.21
-28.3753 231.827 -347.13
-27.1172 231.958 -347.154
-25.8922 232.089 -347.188
-24.6901 232.233 -347.214
-23.4994 232.392 -347.229
-22.3117 232.558 -347.231
-21.1234 232.715 -347.218
-19.9382 232.832 -347.188
-18.7743 232.859 -347.148
-17.7378 232.697 -347.153
-38.721 231.724 -346.138
-37.5799 231.837 -346.328
-36.4899 231.966 -346.405
-35.4058 232.048 -346.46
-34.2888 232.126 -346.488
-33.1454 232.193 -346.504
-31.9802 232.245 -346.511
-30.8363 232.272 -346.522
-29.8892 232.26 -346.57
-28.6087 232.831 -346.114
-27.2365 232.892 -346.243
-25.9779 232.989 -346.327
-24.7626 233.114 -346.381
-23.566 233.266 -346.414
-22.376 233.436 -346.428
-21.1867 233.61 -346.426
-19.9957 233.759 -346.402
-18.7974 233.841 -346.353
-17.5347 233.802 -346.266
-39.1955 232.728 -345.358
-37.9109 232.73 -345.623
-36.7053 232.812 -345.734
-35.5364 232.906 -345.774
-34.3843 232.993 -345.785
-33.2315 233.071 -345.782
-32.0594 233.139 -345.768
-30.8434 233.182 -345.749
-29.6142 233.144 -345.767
-27.3416 233.868 -345.339
-26.0708 233.907 -345.503
-24.8501 234 -345.59
-23.6479 234.137 -345.637
-22.4513 234.306 -345.657
-21.2545 234.495 -345.656
-20.0572 234.673 -345.633
-18.8608 234.803 -345.586
-17.6703 234.847 -345.502
-16.6218 234.781 -345.379
-40.1566 233.306 -344.745
-39.1929 233.684 -344.779
-38.1993 233.661 -344.966
-36.94 233.721 -345.08
-35.6882 233.803 -345.126
-34.4962 233.871 -345.143
-33.3359 233.946 -345.138
-32.1997 234.002 -345.129
-31.0112 234.102 -345.078
-29.638 234.166 -345.007
-27.3302 234.899 -344.605
-26.1509 234.846 -344.78
-24.9596 234.896 -344.882
-23.7628 235.009 -344.935
-22.5622 235.171 -344.952
-21.3536 235.371 -344.938
-20.1386 235.581 -344.899
-18.9293 235.75 -344.843
-17.7287 235.842 -344.76
-16.4932 235.828 -344.623
-38.6267 235.524 -343.842
-37.6245 235.482 -343.997
-36.4363 235.534 -344.07
-30.1128 236.319 -343.863
-29.0549 236.31 -343.872
-27.8579 236.458 -343.82
-40.6649 234.267 -344.035
-39.7007 234.2 -344.361
-38.6315 234.604 -344.338
-37.2743 234.615 -344.5
-35.8657 234.807 -344.493
-34.6355 234.761 -344.576
-33.479 234.826 -344.581
-32.33 234.879 -344.578
-31.3499 234.824 -344.621
-30.1023 235.26 -344.389
-28.479 235.24 -344.379
-27.1783 235.939 -344.076
-26.206 235.782 -344.213
-25.0956 235.796 -344.296
-23.9226 235.89 -344.335
-22.7263 236.035 -344.339
-21.5161 236.234 -344.305
-20.2754 236.492 -344.22
-19.0288 236.712 -344.124
-17.8216 236.825 -344.036
-16.6547 236.851 -343.921
-15.6475 236.778 -343.789
-39.0592 236.04 -343.496
-35.4966 235.698 -344.036
-30.6951 236.86 -343.617
-26.9924 236.706 -343.734
-39.7878 236.191 -343.242
-34.9066 236.243 -343.812
-34.0654 236.43 -343.768
-32.9875 236.633 -343.715
-31.7759 236.82 -343.641
-26.4653 237.247 -343.527
-25.6002 237.478 -343.473
-24.4524 237.671 -343.437
-23.2452 237.826 -343.39
-22.041 237.969 -343.321
-20.872 238.132 -343.225
-19.7892 238.358 -343.079
-41.4655 234.853 -343.382
-40.6993 235.043 -343.599
-39.7629 235.203 -343.777
-34.7428 235.599 -344.118
-33.705 235.677 -344.121
-32.5499 235.786 -344.099
-31.2424 235.83 -344.094
-26.2787 236.624 -343.803
-25.2833 236.674 -343.836
-24.1417 236.78 -343.844
-22.951 236.915 -343.825
-21.7511 237.087 -343.775
-20.5399 237.333 -343.668
-19.1915 237.77 -343.406
-17.9343 237.835 -343.312
-16.7714 237.845 -343.195
-15.5921 237.78 -343.029
-40.1986 236.927 -342.7
-18.9443 238.738 -342.813
-41.935 235.849 -342.569
-40.7697 235.856 -343.103
-18.0402 238.938 -342.573
-16.9347 238.838 -342.465
-15.8781 238.754 -342.306
-14.9207 238.634 -342.112
-40.5649 237.63 -342.156
-18.6 239.497 -342.32
-41.1321 237.794 -341.793
-18.4473 240.183 -341.852
-42.6174 236.336 -341.789
-41.9948 236.681 -342.042
-41.2678 236.913 -342.281
-17.8759 239.989 -341.838
-17.0866 239.805 -341.746
-16.1334 239.674 -341.561
-15.156 239.485 -341.361
-41.2073 238.306 -341.355
-18.0407 240.614 -341.425
-69.2074 236.548 -341.185
-67.9036 236.817 -341.403
-40.8158 238.898 -341.047
-29.935 239.837 -341.25
-28.9601 239.817 -341.331
-28.2405 240.052 -340.986
12.2604 244.186 -339.892
-42.8442 237.178 -340.932
-41.9164 237.542 -341.443
-17.3281 240.746 -341.006
-16.4739 240.446 -340.941
-15.5222 240.448 -340.46
13.3807 243.802 -339.822
-69.7422 236.734 -340.932
-69.1298 236.282 -340.9
-68.2927 236.566 -341.263
-67.4553 236.925 -341.205
-40.7781 239.419 -340.457
-30.9112 240.082 -341.103
-27.6619 240.3 -340.531
-18.1006 241.219 -340.876
12.0939 244.397 -339.758
12.7324 244.17 -339.902
-70.2192 236.361 -340.144
-68.5109 236.282 -340.787
-67.0631 236.899 -340.688
-31.3261 240.306 -340.31
-26.8128 240.668 -340.4
-25.7749 241.28 -340.189
12.5163 244.416 -339.628
-69.6005 236.347 -340.744
-67.7841 236.611 -341.011
-42.3229 238.235 -340.419
-41.4618 238.67 -340.774
-30.4124 240.056 -340.599
-28.2541 240.137 -340.364
-17.5264 241.521 -340.245
-16.5051 241.326 -339.885
11.8643 244.254 -339.675
13.1825 244.166 -339.663
-70.6513 236.742 -339.719
-66.3033 237.178 -340.145
-40.6997 239.81 -339.962
-32.3681 240.786 -340.247
-25.2222 241.598 -339.67
-18.3098 241.884 -340.169
-70.3869 237.262 -339.955
-65.3553 237.646 -339.484
-40.3856 240.195 -339.41
-33.0754 241.041 -339.678
-24.4604 241.97 -339.632
-23.3861 242.345 -339.402
-19.4507 242.615 -339.442
-18.6292 242.366 -339.555
-66.6652 236.689 -340.01
-41.4026 239.374 -339.816
-25.6784 241.221 -339.428
-17.5785 242.14 -339.264
-70.3084 237.473 -339.508
-64.5338 238.188 -338.853
-39.6821 240.648 -338.849
-33.9285 241.425 -339.659
-22.6396 242.502 -338.834
-20.2169 242.764 -339.306
-69.5918 237.857 -339.318
-68.645 238.229 -339.096
-67.8982 238.4 -339.236
-66.7969 238.519 -338.932
-65.5819 238.491 -338.944
-38.6535 240.921 -338.578
-37.3177 241.173 -338.738
-36.1307 241.391 -338.874
-35.1347 241.505 -338.979
-34.407 241.481 -339.128
-21.6291 242.639 -338.6
-20.4728 242.8 -338.682
-70.646 237.088 -339.389
-63.4682 238.034 -338.509
-62.8858 238.083 -338.249
-40.274 240.47 -338.688
-23.2098 242.244 -338.614
-19.6522 242.799 -338.828
-18.6612 242.636 -338.73
-17.6991 242.548 -338.326
-66.6955 238.485 -338.117
-65.7274 238.555 -338.247
-44.5275 243.694 -336.039
-43.6905 243.381 -336.067
-42.8819 243.843 -336.114
-42.0882 244.382 -336.112
-16.5652 246.877 -335.574
-15.5148 246.977 -335.681
-14.3951 247.119 -335.621
-44.2789 242.909 -335.929
-43.6213 242.743 -335.964
-45.3086 244.077 -335.874
-41.1605 244.364 -335.785
-17.0798 247.462 -335.613
-13.6118 247.261 -335.489
-40.667 245.352 -335.816
-17.7313 247.604 -335.322
-13.1867 247.712 -335.354
-13.1749 247.129 -335.334
-46.0102 244.669 -335.659
-39.8304 245.695 -335.384
-18.109 248.075 -335.022
-12.8698 248.393 -335.19
-46.5704 245.254 -335.49
-39.4788 246.15 -335.068
-18.0752 248.692 -334.937
-12.152 248.861 -334.768
-46.7353 244.478 -335.055
-39.4203 245.495 -335.01
-12.2094 248.179 -334.805
-47.2801 245.568 -335.107
-39.3003 246.543 -334.587
-17.9291 249.083 -334.313
-11.3512 249.237 -334.321
-49.1675 246.043 -334.085
-48.2774 245.677 -334.423
-40.317 246.93 -333.716
-39.5359 246.696 -334.088
-11.0811 249.923 -334.308
-10.0979 250.506 -333.926
-47.5403 244.763 -334.452
-38.9161 246.163 -333.992
-10.6827 249.156 -333.839
-49.7849 246.632 -334.14
-41.3239 247.579 -334.122
-17.5717 249.518 -333.522
-9.23147 250.678 -333.471
-51.4118 246.677 -333.026
-50.5893 246.642 -333.629
-42.9761 247.5 -332.988
-42.1459 247.571 -333.619
-17.0011 250.411 -333.524
-8.85789 251.296 -333.349
-8.17225 251.788 -332.847
-8.64774 250.579 -332.999
-52.0747 247.495 -332.913
-43.9098 248.074 -333.174
-16.4733 250.579 -332.625
-7.58598 251.706 -332.239
-52.6426 247.387 -332.183
-44.5611 248.105 -332.414
-15.8238 251.33 -332.537
-52.8592 247.944 -331.962
-45.3101 248.771 -332.513
-15.2139 251.409 -331.703
-7.16659 252.3 -331.596
-45.8371 248.994 -331.666
-14.5391 252.14 -331.646
-13.8782 252.939 -331.643
-6.63674 252.456 -330.866
-53.0013 248.283 -331.322
-46.4354 249.78 -331.745
-13.3637 253.198 -330.867
-7.06702 253.291 -330.736
-52.7476 249.062 -331.223
-7.48989 254.223 -330.336
-6.58638 252.856 -330.459
-52.6783 249.537 -330.245
-46.844 250.166 -330.849
-12.9497 253.628 -330.15
-8.05095 254.877 -330.548
-52.3228 250.129 -330.43
-12.6793 254.713 -330.324
-7.70028 254.861 -329.583
-51.9843 250.714 -329.856
-47.1141 250.544 -329.946
-12.6113 255.381 -329.662
-8.28107 255.692 -329.413
-47.2205 250.921 -329.079
-52.3773 250.126 -329.777
-7.926 255.375 -328.818
-51.5358 251.524 -329.373
-47.2748 251.809 -329.084
-12.7462 255.99 -328.938
-8.61872 256.301 -328.862
-51.2202 252.198 -329.148
-47.1208 252.769 -329.079
-50.8734 252.739 -328.449
-46.7102 253.088 -328.136
-13.044 256.484 -328.2
-8.99883 256.847 -328.35
-13.4358 256.805 -327.422
-9.48741 257.305 -327.429
-50.3534 253.067 -327.325
-46.2613 253.333 -327.231
-13.8498 257.773 -327.318
-10.2123 258.173 -327.698
-49.8548 254.026 -327.311
-45.9275 254.284 -327.251
-45.7381 255.186 -327.302
-14.2203 257.865 -326.462
-10.9482 258.413 -326.705
-49.054 254.254 -326.388
-45.7462 255.287 -326.581
-14.4064 258.545 -326.414
-11.8257 259.156 -326.94
-48.1318 255.291 -326.365
-45.9373 255.348 -325.956
-13.5585 259.102 -325.931
-12.6444 259.182 -326.362
-47.3954 255.514 -325.788
-46.2861 255.897 -326.085
-14.4828 258.751 -325.915
-14.1627 259.228 -325.995
-46.9687 255.835 -325.82
-46.5243 255.813 -325.753
-14.3928 259.022 -325.777
-47.0063 255.403 -325.457
-30.0922 269.947 -314.604
-30.0185 269.305 -314.748
-30.2937 270.422 -314.332
-29.7888 269.871 -314.538
-30.5194 271.086 -313.855
-29.6252 270.747 -314.115
-29.6662 271.492 -313.726
-29.4014 271.215 -313.686
-30.6639 271.691 -313.339
-29.4448 271.755 -313.152
-30.3945 272.41 -312.764
-29.7886 272.357 -312.741
-31.0012 272.698 -311.999
-30.4699 273.102 -311.91
-29.9386 272.868 -312.031
-31.2382 273.093 -311.231
-30.7689 273.407 -311.306
-30.1925 273.415 -311.292
-30.97 224.719 -351.615
-29.5879 224.677 -351.739
-28.2397 224.709 -351.78
-26.8871 224.868 -351.764
-25.602 225.074 -351.696