<VTKFile type="UnstructuredGrid" version="0.1" byte_order="BigEndian">
  <UnstructuredGrid>
    <Piece NumberOfPoints="13762" NumberOfCells="27524">
      <PointData>
        <DataArray type="Float64" Name="position" NumberOfComponents="3" format="ascii">
-46.5112 232.406 -308.729
-7.40493 236.458 -308.387
-46.8289 232.875 -308.326
-7.50129 236.866 -308.069
-47.1307 233.263 -307.924
-8.72829 238.672 -306.41
-8.94577 238.8 -306.206
-46.2055 235.8 -305.521
-45.0934 230.441 -309.602
-44.644 230.378 -309.465
-7.75763 234.292 -309.474
-7.3394 234.537 -309.383
-46.3651 231.87 -309.006
-7.56492 235.965 -308.678
-45.7661 231.139 -309.288
-45.0848 230.867 -309.309
-7.55609 235.133 -309.056
-46.8354 232.207 -308.716
-46.0489 232.054 -308.854
-7.70585 236.455 -308.36
-7.18922 235.922 -308.581
-47.2929 232.725 -308.181
-46.3391 232.743 -308.388
-7.80854 237.036 -307.835
-7.15235 236.735 -307.86
-8.58152 238.199 -306.661
-7.52665 237.272 -307.54
-47.6218 232.303 -308.025
-47.3907 233.229 -307.799
-46.6416 233.494 -307.632
-8.86135 238.494 -306.432
-8.47353 238.543 -306.42
-47.2756 233.601 -307.385
-47.6602 233.014 -307.478
-8.02136 237.828 -306.904
-9.0965 238.558 -306.15
-8.76548 238.887 -306.034
-46.3036 235.598 -305.663
-9.23188 238.949 -305.708
-46.9346 234.363 -306.555
-46.3113 234.982 -306.025
-46.3782 235.774 -305.571
-45.8331 235.561 -305.33
-46.227 235.904 -305.28
-46.6783 235.43 -305.577
-10.3107 239.138 -304.914
-9.87507 239.083 -305.117
-9.46017 239.266 -305.076
-45.6888 236.299 -304.519
-44.6644 236.552 -303.932
-45.0865 236.767 -303.669
-44.1881 236.897 -303.337
-45.0301 229.892 -309.735
-44.6666 230.01 -309.675
-7.86705 233.62 -309.624
-7.45273 233.994 -309.582
-42.906 228.273 -309.748
-8.64741 232.465 -309.647
-8.02688 232.904 -309.697
-45.5048 230.336 -309.613
-44.2817 229.905 -309.479
-8.11135 233.917 -309.5
-7.09243 234.175 -309.414
-46.0876 230.489 -309.401
-44.3148 230.264 -309.25
-8.1856 234.415 -309.147
-8.57197 233.278 -309.406
-46.5498 231.336 -309.066
-44.6534 230.76 -308.983
-8.02641 235.58 -308.603
-6.8726 234.958 -308.925
-45.385 231.563 -308.81
-44.2544 230.354 -308.967
-8.44626 234.71 -308.647
-6.28171 235.148 -308.243
-47.2373 231.711 -308.565
-45.8589 232.348 -308.473
-8.00137 236.452 -308.137
-6.70085 235.942 -308.096
-47.7024 231.663 -308.116
-47.494 231.03 -308.432
-45.48 232.236 -308.075
-6.22151 235.883 -307.405
-47.9465 232.124 -307.496
-46.0208 232.927 -307.931
-8.17806 236.926 -307.602
-6.6637 236.679 -307.153
-8.49001 237.359 -307.022
-45.6491 232.936 -307.36
-8.47388 236.557 -307.417
-6.24814 236.459 -306.609
-48.1047 232.873 -306.501
-46.0954 233.483 -307.344
-8.92888 237.84 -306.434
-7.25054 237.502 -306.724
-47.6209 233.769 -306.594
-46.273 234.12 -306.766
-7.7128 238.225 -306.044
-45.8235 233.632 -306.805
-47.4864 234.594 -305.559
-45.7089 234.337 -305.956
-9.45793 238.312 -305.694
-8.29124 238.693 -305.821
-10.4592 238.99 -304.693
-10.0535 238.619 -305.046
-47.9726 233.755 -305.813
-7.84719 238.612 -305.283
-47.073 235.522 -304.717
-45.106 234.948 -304.804
-10.4967 239.256 -304.778
-8.89883 239.116 -305.332
-46.4465 236.031 -304.828
-45.0231 235.96 -304.477
-10.375 239.282 -304.693
-9.95517 239.384 -304.369
-9.21579 239.331 -304.661
-10.5701 239.234 -304.613
-46.2076 236.355 -304.396
-44.371 236.243 -303.922
-45.9683 236.584 -303.869
-43.8541 236.646 -303.442
-46.6075 236.176 -304.19
-44.5677 235.679 -304.123
-11.0943 239.198 -303.317
-10.5133 239.408 -303.527
-45.4741 236.83 -303.286
-43.5633 236.962 -303.116
-44.637 236.939 -302.861
-43.7048 237.023 -302.825
-46.0156 236.7 -303.272
-43.2683 237.012 -302.851
-43.1415 228.128 -309.749
-8.7732 231.891 -309.672
-8.13237 232.205 -309.732
-10.9952 230.643 -309.697
-10.1186 231.082 -309.665
-43.0725 228.382 -309.716
-42.7604 228.082 -309.687
-9.56192 232.016 -309.34
-7.61716 232.573 -309.714
-45.0032 229.434 -309.727
-44.4628 229.435 -309.662
-42.8616 228.326 -309.568
-7.20949 233.267 -309.542
-45.0156 228.727 -309.583
-43.5894 228.646 -309.527
-10.7381 231.178 -309.37
-7.22812 232.525 -309.6
-45.5837 229.708 -309.608
-43.9008 229.42 -309.361
-9.21727 232.961 -308.892
-6.64869 234.03 -309.174
-46.208 229.946 -309.384
-8.75496 233.857 -308.8
-6.34925 234.509 -308.776
-46.2592 229.18 -309.268
-6.17403 233.946 -308.828
-46.8431 230.431 -308.973
-43.9798 229.91 -308.997
-8.7902 234.428 -308.112
-5.93809 234.381 -308.316
-47.5046 230.278 -308.432
-44.2597 230.473 -308.392
-8.44055 235.213 -308.28
-47.1548 229.431 -308.723
-47.9514 230.961 -307.784
-44.8858 231.372 -308.222
-8.3294 236.007 -307.956
-5.81707 235.023 -307.528
-8.6145 235.851 -307.461
-8.61057 235.278 -307.823
-48.3265 231.667 -306.774
-45.1179 232.073 -307.36
-8.79962 236.476 -306.811
-5.82279 235.766 -306.489
-6.09939 236.532 -305.894
-48.4837 232.273 -305.912
-45.3408 233.002 -306.416
-9.20557 237.056 -305.926
-6.59503 237.158 -305.936
-6.21536 236.891 -305.192
-48.3835 233.168 -305.16
-45.1891 233.673 -305.3
-9.6924 237.59 -305.161
-7.2635 238.069 -305.336
-48.0196 234.094 -305.077
-10.2903 238.129 -304.441
-7.6909 238.627 -304.665
-47.767 234.753 -304.314
-44.9151 234.079 -304.458
-10.6771 239.032 -304.095
-8.39225 239.015 -304.479
-11.4172 238.721 -303.193
-9.30695 239.405 -303.929
-48.2294 233.949 -304.413
-7.77872 238.73 -304.119
-47.1558 235.715 -303.611
-44.4937 234.897 -303.799
-11.5054 239.084 -302.875
-9.91338 239.516 -303.605
-46.522 236.395 -303.504
-43.9663 235.985 -303.478
-43.4672 236.496 -303.112
-43.2934 236.836 -303
-11.002 239.303 -302.696
-10.1381 239.467 -302.913
-11.8489 238.792 -302.647
-9.52014 239.46 -303.214
-46.3132 236.55 -302.956
-43.092 236.899 -302.703
-45.6255 236.751 -302.625
-44.7775 236.833 -301.991
-43.8428 236.894 -302.157
-43.262 236.956 -302.51
-46.7616 236.203 -302.983
-44.843 236.678 -301.298
-44.1835 236.722 -301.4
-11.2077 230.047 -309.858
-10.2977 230.392 -309.798
-13.0244 228.922 -309.938
-12.2302 228.996 -310.075
-11.414 229.324 -310.003
-11.5777 230.3 -309.723
-9.55195 230.737 -309.735
-45.4517 227.588 -309.346
-43.9446 227.553 -309.685
-42.8379 227.624 -309.738
-11.5911 230.568 -309.386
-9.18658 231.327 -309.672
-8.14383 231.41 -309.61
-7.43838 231.995 -309.575
-42.993 226.893 -309.882
-42.0805 227.042 -309.742
-41.2328 226.77 -309.643
-40.6633 226.753 -309.297
-12.2166 229.72 -309.688
-8.68411 230.73 -309.622
-7.80075 230.716 -309.422
-45.926 228.333 -309.323
-42.2923 227.839 -309.305
-11.214 231.018 -308.992
-6.6526 232.31 -309.236
-46.39 228.45 -309.172
-42.8556 228.493 -309.042
-10.5567 231.536 -308.801
-6.34158 233.267 -309.046
-46.4711 227.848 -309.006
-41.4102 227.209 -309.287
-11.6862 230.654 -308.844
-46.8389 228.569 -308.914
-43.4332 229.167 -308.8
-9.83916 232.314 -308.394
-5.77305 233.534 -308.441
-47.4211 228.701 -308.475
-9.2241 233.346 -308.261
-47.1977 228.008 -308.593
-42.9001 228.68 -308.334
-47.8777 229.536 -307.98
-43.7655 229.764 -308.315
-9.13918 233.765 -307.599
-5.47208 234.072 -307.666
-43.9974 230.092 -307.511
-48.4877 230.316 -306.915
-44.5582 231.053 -307.438
-8.90728 234.873 -307.113
-5.38957 234.752 -306.73
-48.842 229.513 -306.593
-48.7312 231.31 -305.787
-44.8468 231.719 -306.477
-9.05664 235.626 -306.06
-5.43753 235.325 -305.87
-48.9621 230.194 -305.931
-48.6777 232.214 -305.176
-45.0057 232.408 -305.501
-9.34063 236.274 -305.214
-5.76168 236.133 -305.157
-6.12059 236.853 -304.45
-48.6993 232.578 -304.464
-44.9661 233.021 -304.58
-9.76362 236.838 -304.467
-6.64101 237.515 -304.512
-10.2939 237.208 -303.757
-6.30046 237.128 -303.665
-48.5301 233.334 -303.743
-44.7372 233.635 -303.764
-10.8751 238.151 -303.633
-7.3171 238.303 -304.125
-48.1852 234.211 -303.699
-11.9632 238.193 -302.458
-11.4026 238.032 -303.005
-7.83794 238.661 -303.267
-47.8118 234.823 -302.986
-44.3234 234.214 -302.959
-12.1331 238.581 -302.155
-8.79294 239.182 -303.197
-43.879 235.336 -302.92
-43.4986 236.099 -302.889
-43.1707 236.546 -302.656
-11.741 238.978 -302.304
-11.2909 239.086 -301.794
-10.3069 239.292 -301.955
-9.4159 239.293 -302.438
-48.2962 234.023 -303.015
-47.1094 235.686 -302.462
-43.0664 236.774 -302.422
-46.3881 236.329 -302.326
-45.6223 236.518 -301.6
-43.2549 236.678 -302.031
-43.1251 236.433 -302.165
-11.4602 238.843 -301.097
-10.7389 239.073 -301.183
-45.1804 236.454 -300.887
-43.5631 236.547 -301.442
-44.4535 236.436 -300.676
-43.839 236.45 -300.89
-45.7598 236.181 -300.815
-30.2036 217.46 -317.227
-22.9032 218.729 -317.24
-22.0678 218.861 -317.243
-33.0636 218.054 -316.813
-23.2158 219.226 -316.795
-22.4627 219.27 -316.918
-21.5164 219.558 -316.738
-20.5653 219.768 -316.607
-34.0961 219.523 -315.609
-23.4634 219.56 -316.327
-22.594 219.758 -316.344
-34.8183 219.646 -315.305
-34.1953 219.943 -315.088
-33.3656 219.965 -315.117
-32.5772 220.072 -314.857
-13.7504 228.236 -309.971
-12.7421 228.359 -310.204
-11.4862 228.379 -310.169
-41.6824 224.955 -310.016
-40.3099 224.894 -309.904
-15.6052 226.967 -309.829
-14.7646 227.432 -309.91
-13.4428 227.609 -310.246
-12.2588 227.703 -310.336
-11.5079 227.695 -310.293
-13.6917 228.709 -309.665
-10.6795 228.9 -309.979
-43.0304 226.297 -309.967
-42.421 226.339 -309.978
-41.5185 226.344 -309.897
-40.6033 226.253 -309.651
-13.1717 229.193 -309.56
-10.3311 229.575 -309.851
-9.20096 230.016 -309.617
-8.01005 230.12 -309.339
-42.9879 225.537 -309.962
-41.9113 225.786 -310.022
-40.9248 225.653 -309.914
-39.5812 225.496 -309.553
-38.7267 225.354 -309.293
-9.93887 228.886 -309.783
-43.6879 226.374 -309.812
-39.8352 226.21 -309.173
-12.9242 229.51 -309.061
-7.27853 230.342 -309.176
-46.3623 226.806 -308.833
-44.9501 226.367 -309.396
-40.2082 226.665 -308.776
-12.215 230.14 -308.99
-6.82439 231.025 -309.107
-44.1576 225.572 -309.687
-6.79531 230.255 -308.966
-47.0022 227.427 -308.629
-40.8607 227.066 -308.878
-11.9207 230.375 -308.313
-5.88551 231.65 -308.677
-47.4103 227.613 -308.378
-41.5074 227.468 -308.509
-11.1925 231.009 -308.334
-10.5101 231.604 -308.137
-5.76621 232.574 -308.586
-47.4441 227.048 -308.216
-4.98982 231.809 -307.922
-4.23806 231.559 -307.282
-47.8849 228.121 -307.975
-42.339 228.118 -308.42
-10.0956 231.963 -307.536
-5.19244 233.02 -307.793
-42.7049 228.359 -307.554
-9.5409 232.844 -307.579
-48.2968 227.18 -307.525
-4.46132 232.52 -306.939
-48.4862 229.044 -307.252
-43.3763 229.175 -307.691
-9.27135 233.461 -306.846
-4.96761 233.722 -306.846
-48.9388 228.81 -306.674
-43.8313 229.554 -306.59
-48.6938 228.088 -307.115
-4.501 233.479 -305.932
-49.1961 229.27 -305.97
-44.3636 230.586 -306.531
-9.11424 234.189 -306.043
-5.01603 234.527 -305.739
-4.64614 234.118 -305.103
-49.3318 229.993 -304.95
-44.6929 231.171 -305.568
-9.14294 234.888 -305.189
-5.3178 235.337 -305.122
-49.0475 230.792 -305.13
-48.935 231.655 -304.436
-44.8819 231.792 -304.661
-9.3438 235.537 -304.422
-5.44515 235.702 -304.406
-49.1951 230.81 -304.394
-48.8114 232.444 -303.732
-44.8759 232.402 -303.811
-9.71011 236.062 -303.727
-5.8138 236.374 -303.787
-10.2164 236.4 -303.074
-6.17385 236.889 -302.753
-48.7617 232.735 -303.017
-44.6617 232.985 -302.987
-10.8885 237.348 -303.086
-6.90085 237.789 -302.962
-12.2772 237.308 -301.708
-11.5468 237.391 -302.45
-7.54863 238.339 -302.236
-48.5176 233.396 -302.42
-44.2625 233.492 -302.154
-12.4574 238.036 -301.705
-8.37963 238.769 -301.95
-48.1377 234.216 -302.255
-43.8122 234.665 -302.136
-43.3764 235.792 -302.222
-12.1231 238.535 -301.417
-9.39787 239.091 -301.5
-12.7823 237.446 -301.221
-7.68455 238.317 -301.614
-47.5524 234.854 -301.556
-43.2455 236.03 -301.479
-11.8332 238.429 -300.542
-10.03 239.137 -301.19
-46.5595 235.831 -301.323
-11.0073 238.705 -300.496
-10.1797 238.882 -300.603
-9.55344 238.939 -300.827
-46.0895 235.667 -300.231
-43.4176 236.052 -300.74
-45.1148 236.03 -300.15
-44.2921 236.033 -299.986
-43.7973 236.095 -300.28
-29.79 249.624 -287.717
-30.1224 249.91 -287.465
-29.8889 250.088 -287.258
-35.7772 215 -318.171
-34.7658 215.009 -318.282
-27.5105 216.073 -318.078
-26.2197 216.044 -318.205
-25.0964 216.058 -318.292
-24.0921 216.153 -318.317
-30.3866 217.256 -317.328
-23.3716 218.08 -317.52
-22.5063 218.135 -317.584
-36.1601 215.907 -317.583
-34.9568 215.88 -317.782
-33.7475 215.855 -317.9
-32.3684 216.138 -317.821
-31.3038 216.147 -317.863
-30.1694 216.66 -317.625
-28.6869 216.608 -317.674
-27.5255 217.008 -317.484
-26.5234 216.929 -317.65
-25.3843 216.889 -317.836
-24.442 216.79 -318.004
-23.2779 217.118 -317.948
-21.7618 217.526 -317.831
-20.4279 217.636 -317.726
-19.144 217.795 -317.572
-17.8831 217.909 -317.45
-16.7372 218.02 -317.346
-15.787 218.132 -317.234
-30.4202 217.533 -317.136
-30.0233 217.335 -317.275
-23.7869 218.604 -317.115
-21.7063 218.388 -317.499
-33.2011 217.888 -316.883
-30.0569 217.612 -317.082
-21.3563 218.911 -317.222
-20.6526 219.202 -317.002
-37.052 216.454 -317.014
-36.0423 216.839 -317.055
-35.1215 216.824 -317.233
-34.139 216.768 -317.379
-32.9111 217.265 -317.185
-31.2105 217.177 -317.284
-29.3939 217.563 -317.015
-28.085 217.601 -316.963
-26.8822 217.723 -316.98
-25.6647 217.738 -317.214
-24.3881 217.698 -317.524
-20.9172 218.422 -317.43
-19.7353 218.794 -317.108
-18.3328 218.859 -316.924
-17.0769 218.859 -316.832
-16.0226 218.844 -316.761
-15.1913 218.767 -316.72
-33.2957 218.065 -316.782
-32.808 217.955 -316.837
-24.0104 219.154 -316.553
-19.9514 219.59 -316.68
-34.4249 218.893 -316.064
-32.9811 218.228 -316.652
-20.7925 220.198 -316.144
-19.9954 220.075 -316.28
-37.3897 217.283 -316.281
-36.3638 217.457 -316.549
-35.4063 217.533 -316.749
-33.9596 218.009 -316.679
-31.9367 218.232 -316.543
-30.3384 218.022 -316.654
-29.3472 218.271 -316.319
-28.5967 218.151 -316.408
-27.5038 218.375 -316.118
-26.0197 218.516 -316.319
-24.7825 218.524 -316.805
-18.9337 219.929 -316.235
-17.46 219.758 -316.216
-16.3054 219.65 -316.166
-15.3409 219.502 -316.13
-34.8548 219.21 -315.74
-33.7297 219.012 -316.058
-23.944 219.506 -316.132
-21.6833 220.148 -316.087
-35.4288 219.218 -315.49
-33.3155 219.478 -315.683
-32.5852 219.648 -315.389
-23.4414 219.875 -315.599
-22.2713 220.266 -315.656
-37.5514 218.007 -315.541
-36.6722 218.057 -315.95
-35.4619 218.452 -316.078
-32.8815 218.881 -316.115
-31.7765 219.197 -315.646
-30.7413 218.828 -315.832
-29.7796 218.655 -315.898
-28.7394 218.743 -315.559
-24.7564 219.212 -315.89
-21.1948 220.642 -315.37
-19.8247 220.636 -315.571
-18.6705 220.771 -315.377
-17.7368 220.569 -315.511
-16.6378 220.427 -315.489
-15.6021 220.262 -315.43
-35.4883 219.554 -315.007
-31.7719 219.809 -314.81
-34.8221 219.945 -314.714
-33.921 220.185 -314.559
-33.0313 220.262 -314.475
-32.3231 220.188 -314.426
-37.7576 218.524 -314.778
-36.4484 218.89 -315.177
-30.9303 219.376 -315.113
-29.8713 219.136 -315.092
-23.4651 220.081 -314.663
-22.3211 220.55 -314.719
-21.1574 221.013 -314.539
-20.1945 221.133 -314.697
-19.0419 221.199 -314.727
-17.9227 221.154 -314.745
-17.0104 220.979 -314.88
-15.9899 220.964 -314.61
-37.1711 219.139 -314.184
-35.8718 219.671 -314.224
-34.657 220.115 -313.957
-33.5787 220.271 -313.88
-32.6422 220.254 -313.925
-21.4575 220.984 -313.916
-20.4539 221.295 -313.928
-19.4016 221.464 -313.967
-18.2637 221.505 -313.928
-16.9476 221.393 -313.975
-42.1297 223.917 -309.938
-40.7316 224.117 -309.947
-15.9115 226.471 -309.702
-15.1879 226.747 -309.982
-14.1441 226.716 -310.19
-12.7796 226.945 -310.354
-11.4618 226.959 -310.281
-13.1963 226.136 -310.278
-12.0993 226.316 -310.33
-11.4297 226.346 -310.294
-42.723 224.701 -309.983
-39.7756 224.287 -309.866
-15.9932 226.842 -309.673
-10.7698 227.563 -310.107
-43.27 224.851 -309.931
-39.2519 224.7 -309.711
-38.6064 224.98 -309.421
-15.8282 227.169 -309.465
-15.1908 227.611 -309.563
-10.0276 228.099 -309.812
-43.4131 224.262 -309.817
-39.0943 224.099 -309.708
-16.3216 226.628 -309.381
-10.0329 227.389 -309.874
-43.8213 224.935 -309.783
-38.2614 225.172 -309.135
-14.529 228.106 -309.377
-9.26744 228.507 -309.524
-44.3891 225.029 -309.605
-38.6618 225.555 -308.791
-13.7007 228.861 -309.113
-9.2246 229.151 -309.539
-8.03068 229.241 -309.112
-6.97903 229.686 -308.845
-44.4902 224.417 -309.492
-37.8435 225.056 -308.829
-16.1978 227.07 -308.96
-8.40951 228.517 -309.15
-7.57532 228.485 -308.75
-44.9324 225.238 -309.361
-39.4967 226.2 -308.596
-13.3131 229.119 -308.343
-6.16635 230.074 -308.588
-47.07 226.025 -308.26
-45.9852 225.508 -308.83
-39.9123 226.463 -308.14
-12.5869 229.783 -308.362
-5.37876 230.693 -308.232
-4.38053 230.88 -307.547
-45.4117 224.6 -309.057
-5.31092 229.759 -308.019
-47.8756 226.374 -307.761
-40.661 226.946 -308.273
-12.1335 229.976 -307.635
-3.86485 231.074 -307.069
-48.6489 226.307 -307.093
-41.1989 227.088 -307.564
-11.4361 230.567 -307.545
-10.7315 231.236 -307.519
-3.47388 230.96 -306.571
-49.0293 227.281 -306.8
-41.9943 227.687 -307.571
-10.2339 231.548 -306.781
-3.81727 231.677 -306.651
-42.5494 227.817 -306.614
-9.6998 232.396 -306.779
-49.3311 226.685 -306.522
-3.3736 231.565 -305.929
-49.3293 228.229 -306.208
-43.2309 228.621 -306.6
-9.38169 232.918 -305.972
-3.87289 232.519 -305.781
-43.7882 228.959 -305.616
-49.6487 227.295 -306.076
-3.36584 232.1 -305.224
-49.6291 228.949 -305.197
-44.2882 230.01 -305.589
-9.1801 233.534 -305.113
-4.22687 233.49 -304.948
-4.55633 234.169 -304.398
-49.9421 228.003 -305.288
-49.7511 229.517 -304.145
-44.657 230.587 -304.694
-9.13594 234.238 -304.326
-5.00982 234.901 -304.378
-50.0793 228.699 -304.366
-4.69832 234.491 -303.703
-49.4386 230.435 -303.643
-44.8503 231.179 -303.879
-9.28257 234.872 -303.645
-5.38881 235.649 -303.603
-49.1725 231.176 -303.696
-48.9936 231.875 -302.972
-44.8355 231.73 -303.055
-9.61414 235.339 -303.002
-5.6454 236.051 -302.611
-10.0931 235.637 -302.396
-6.03608 236.588 -301.919
-49.255 231.098 -302.972
-48.7857 232.582 -302.239
-44.6133 232.273 -302.217
-10.8379 236.54 -302.43
-6.52854 237.197 -301.812
-12.7636 236.698 -300.807
-12.1803 236.472 -301.216
-11.5624 236.559 -301.787
-6.24596 236.675 -301.215
-48.5762 232.935 -301.393
-44.1984 232.73 -301.376
-13.0035 237.175 -300.674
-7.18074 237.861 -301.641
-48.1712 233.832 -301.362
-43.7367 233.858 -301.276
-43.3603 234.992 -301.298
-12.7636 237.784 -300.977
-12.5022 237.975 -300.494
-7.84548 238.069 -300.863
-47.6085 234.163 -300.235
-43.1358 235.255 -300.505
-12.129 237.974 -299.97
-8.83167 238.646 -300.832
-46.9297 235.1 -300.39
-11.3207 238.129 -299.739
-10.3185 238.415 -299.897
-9.46624 238.552 -300.206
-12.5549 237.57 -299.827
-46.374 235.112 -299.615
-43.2776 235.514 -299.949
-45.4291 235.298 -299.287
-44.4228 235.571 -299.388
-43.7221 235.63 -299.597
-46.9122 234.604 -299.563
-29.428 247.366 -288.741
-29.7425 249.168 -288.067
-29.7231 248.38 -288.361
-29.9824 249.321 -287.96
-29.5055 248.932 -287.937
-30.3128 249.45 -287.657
-30.1962 248.769 -288.071
-30.5461 249.897 -286.98
-29.5319 249.629 -287.217
-30.1735 250.35 -286.863
-29.8365 250.276 -286.752
-30.4884 250.486 -286.351
-30.1089 250.638 -286.111
-30.5742 250.752 -285.653
-27.7124 206.42 -325.754
-26.4081 206.432 -325.865
-25.1727 206.503 -325.894
-23.932 206.591 -325.868
-22.6725 206.674 -325.802
-21.5125 206.816 -325.71
-30.2166 207.051 -324.952
-28.8018 206.937 -325.264
-27.6799 207.303 -325.157
-26.7219 207.268 -325.287
-25.5577 207.335 -325.342
-24.3554 207.437 -325.35
-23.136 207.549 -325.324
-21.9121 207.659 -325.278
-20.6388 207.723 -325.236
-19.4556 208.041 -325.027
-31.385 207.679 -324.261
-30.1727 207.958 -324.272
-29.195 207.856 -324.494
-28.0524 207.929 -324.584
-26.9453 208.058 -324.607
-25.8199 208.158 -324.643
-24.6418 208.276 -324.665
-23.4431 208.405 -324.667
-22.2329 208.536 -324.651
-21.0049 208.662 -324.614
-19.7714 208.81 -324.535
-18.5302 208.901 -324.434
-17.4068 209.186 -324.124
-32.6367 208.378 -323.457
-31.4162 208.681 -323.454
-30.4749 208.63 -323.646
-29.4085 208.667 -323.754
-28.3246 208.705 -323.837
-27.2015 208.815 -323.852
-26.0436 208.965 -323.837
-24.849 209.112 -323.844
-23.6427 209.252 -323.868
-22.4383 209.397 -323.881
-21.2288 209.544 -323.873
-20.0076 209.693 -323.837
-18.7806 209.828 -323.764
-17.5972 209.94 -323.632
-16.6476 209.892 -323.513
-33.8471 209.101 -322.627
-32.6565 209.409 -322.611
-31.7218 209.372 -322.797
-30.6577 209.428 -322.898
-29.5947 209.447 -322.994
-28.5173 209.48 -323.055
-27.4407 209.553 -323.069
-26.3002 209.745 -322.975
-25.0536 209.961 -322.907
-23.7903 210.104 -322.956
-22.5654 210.248 -323.006
-21.3589 210.403 -323.034
-20.1506 210.567 -323.032
-18.9306 210.725 -322.995
-17.6999 210.855 -322.912
-16.4304 210.896 -322.769
-34.9532 209.764 -321.86
-33.8802 210.116 -321.793
-32.9612 210.1 -321.96
-31.9037 210.183 -322.045
-30.8247 210.232 -322.128
-29.7157 210.261 -322.2
-28.6427 210.254 -322.271
-27.589 210.287 -322.284
-26.6482 210.326 -322.303
-25.3777 210.899 -321.795
-23.9324 210.989 -321.952
-22.6547 211.105 -322.066
-21.4358 211.251 -322.136
-20.2329 211.421 -322.168
-19.0249 211.6 -322.164
-17.8036 211.765 -322.119
-16.5722 211.884 -322.018
-15.3575 211.962 -321.823
-35.5797 210.801 -320.924
-34.279 210.811 -321.149
-33.1692 210.906 -321.235
-32.088 210.984 -321.305
-30.9705 211.064 -321.353
-29.8136 211.113 -321.396
-28.6401 211.096 -321.458
-27.7236 210.953 -321.608
-26.5285 211.172 -321.387
-24.0247 211.939 -320.895
-22.7182 211.986 -321.111
-21.4905 212.1 -321.231
-20.2882 212.262 -321.294
-19.0874 212.452 -321.315
-17.8766 212.644 -321.298
-16.6561 212.801 -321.238
-15.456 212.88 -321.131
-14.4617 212.816 -321.021
-36.7246 211.475 -320.199
-35.5033 211.78 -320.219
-34.5235 211.684 -320.427
-33.3863 211.72 -320.537
-32.2572 211.806 -320.588
-31.1249 211.898 -320.617
-29.9572 211.982 -320.631
-28.6989 212.028 -320.643
-27.2096 211.951 -320.692
-23.8642 212.978 -319.979
-22.7276 212.901 -320.231
-21.5394 212.961 -320.379
-20.346 213.1 -320.46
-19.1485 213.289 -320.494
-17.9414 213.501 -320.49
-16.7228 213.694 -320.448
-15.4934 213.813 -320.368
-14.2201 213.789 -320.244
-37.8393 212.062 -319.52
-36.8669 212.451 -319.53
-35.8707 212.497 -319.671
-34.7058 212.551 -319.779
-33.5713 212.567 -319.878
-32.4262 212.642 -319.922
-31.282 212.736 -319.942
-30.1534 212.816 -319.957
-28.968 212.942 -319.928
-27.618 213.05 -319.882
-26.1334 213.124 -319.798
-24.7033 213.463 -319.587
-23.5998 213.896 -319.393
-22.7085 213.811 -319.528
-21.6032 213.834 -319.645
-20.4332 213.944 -319.716
-19.2397 214.122 -319.745
-18.0294 214.347 -319.733
-16.8067 214.573 -319.687
-15.5844 214.737 -319.614
-14.3648 214.785 -319.503
-13.1345 214.693 -319.311
-36.3931 214.243 -318.515
-35.4841 214.216 -318.657
-28.076 215.113 -318.588
-27.05 215.11 -318.648
-25.822 215.159 -318.683
-24.6731 215.302 -318.661
-38.4098 213.027 -318.739
-37.4088 212.942 -319.096
-36.3605 213.365 -319.041
-34.9556 213.494 -319.138
-33.7532 213.423 -319.282
-32.611 213.486 -319.322
-31.4561 213.59 -319.33
-30.3055 213.667 -319.349
-29.3317 213.637 -319.421
-28.1118 214.095 -319.189
-26.6594 214.14 -319.201
-25.3141 214.299 -319.133
-23.9799 214.649 -318.984
-22.8251 214.666 -319.017
-21.7362 214.705 -319.064
-20.5814 214.802 -319.095
-19.3902 214.96 -319.099
-18.1781 215.18 -319.067
-16.9348 215.452 -318.982
-15.6932 215.665 -318.883
-14.501 215.736 -318.786
-13.3671 215.676 -318.655
-12.351 215.495 -318.457
-36.8397 214.881 -318.052
-34.6161 214.345 -318.665
-28.6043 215.616 -318.271
-23.8073 215.532 -318.587
-34.0174 214.891 -318.403
-33.1266 215.106 -318.338
-32.0108 215.265 -318.307
-30.866 215.454 -318.258
-29.6501 215.6 -318.23
-23.3143 216.127 -318.357
-22.4158 216.389 -318.271
-21.2085 216.573 -318.198
-19.9646 216.714 -318.116
-18.7255 216.869 -318.024
-17.5207 217.053 -317.923
-16.3945 217.296 -317.777
-39.2845 213.594 -318.025
-38.4226 213.949 -318.177
-37.4248 213.874 -318.515
-33.874 214.242 -318.775
-32.8295 214.316 -318.797
-31.6933 214.444 -318.785
-30.5071 214.568 -318.777
-29.2048 214.623 -318.813
-23.04 215.475 -318.632
-21.9895 215.564 -318.621
-20.8275 215.677 -318.599
-19.6241 215.818 -318.563
-18.4101 216.008 -318.506
-17.1841 216.271 -318.4
-15.8351 216.687 -318.148
-14.6195 216.705 -318.063
-13.5168 216.621 -317.958
-12.5155 216.392 -317.846
-37.2012 215.547 -317.564
-15.5286 217.617 -317.543
-37.8631 215.717 -317.238
-15.1231 218.18 -317.14
-39.6131 214.477 -317.259
-38.857 214.445 -317.686
-37.9496 214.819 -317.784
-14.7064 217.739 -317.333
-13.6498 217.597 -317.198
-12.6498 217.316 -317.113
-38.1323 216.395 -316.631
-14.6332 218.546 -316.761
-39.8004 215.368 -316.478
-38.8022 215.367 -317.061
-13.8399 218.655 -316.353
-12.8016 218.268 -316.261
24.6399 222.14 -315.143
-38.3542 217.176 -315.866
-14.5465 219.231 -316.147
-26.6701 218.795 -315.476
-25.8229 218.98 -315.558
-39.9404 216.193 -315.672
-39.0919 216.282 -316.193
-13.8832 219.657 -315.36
-12.9752 219.227 -315.266
22.557 222.732 -314.396
22.8603 222.756 -314.513
-38.4718 217.846 -315.099
-27.5846 218.819 -315.011
-25.3755 219.199 -315.095
-14.6993 220.001 -315.417
-28.4033 218.997 -314.788
-24.4602 219.563 -314.799
-40.008 216.849 -314.909
-39.2306 217.056 -315.366
-26.8492 218.864 -314.857
-26.2047 218.972 -314.886
-14.1854 220.341 -314.673
-13.3336 220.163 -314.209
-38.4616 218.257 -314.583
-29.0096 219.108 -314.807
-23.855 219.824 -314.073
-14.9493 220.669 -314.647
-38.2364 218.665 -314.029
-30.687 219.531 -314.174
-29.4596 219.234 -314.282
-23.0098 220.267 -314.017
-22.2381 220.637 -313.84
-15.2127 221.125 -313.997
-39.2217 217.787 -314.416
-28.7315 219.105 -314.354
-14.2892 220.907 -313.681
-37.6326 219.154 -313.66
-31.8214 220.019 -314.027
-21.6233 220.73 -313.225
-15.8664 221.356 -313.77
-36.9385 219.521 -313.195
-35.524 219.948 -313.224
-34.3025 220.082 -313.05
-33.1055 220.096 -313.239
-32.2612 220.049 -313.472
-20.6709 221.141 -313.209
-19.6439 221.458 -313.22
-18.722 221.614 -313.287
-17.57 221.654 -312.854
-16.1794 221.548 -313.007
-38.0865 219.029 -313.233
-15.1695 221.354 -313.254
-14.5088 221.285 -312.832
-37.0046 219.608 -312.25
-36.1722 219.819 -312.428
-35.2255 219.964 -312.447
-17.9014 221.691 -312.198
-13.5783 225.217 -310.062
-12.3705 225.527 -310.192
-11.4186 225.799 -310.196
-14.1722 225.915 -310.135
-10.8143 226.195 -310.133
-43.1847 223.349 -309.748
-42.1408 222.974 -309.858
-40.9242 223.079 -309.869
-39.6043 223.505 -309.747
-16.5126 225.978 -309.125
-16.023 225.927 -309.532
-15.2319 225.967 -309.861
-10.0667 226.626 -309.882
-43.7806 221.927 -309.551
-42.8776 222.298 -309.723
-41.5498 222.261 -309.838
-40.6058 222.249 -309.805
-14.5999 225.39 -309.947
-10.1916 225.958 -309.936
-44.0334 223.736 -309.591
-38.6675 223.633 -309.528
-16.7083 226.353 -308.908
-9.27521 227.142 -309.531
-44.529 223.74 -309.417
-38.3575 224.227 -309.411
-37.7761 224.64 -309.031
-16.4712 226.767 -309.007
-15.3974 227.61 -309.205
-8.64815 227.738 -309.203
-7.67059 227.891 -308.7
-44.3686 222.962 -309.368
-38.0501 223.512 -309.251
-8.34658 226.859 -309.054
-45.0697 223.878 -309.159
-37.3579 224.717 -308.642
-16.4623 226.804 -308.518
-15.8613 227.324 -309.025
-15.0473 227.808 -308.73
-7.0384 228.087 -308.393
-45.6308 224.108 -308.878
-38.1107 225.285 -307.905
-37.5114 224.915 -308.274
-15.9831 227.169 -308.52
-14.2564 228.304 -308.332
-6.76084 228.682 -308.4
-5.90606 229.219 -308.165
-45.7595 223.462 -308.701
-36.9957 224.486 -308.299
-15.5626 227.486 -308.701
-6.41523 227.936 -308.003
-46.1329 224.486 -308.599
-39.0393 225.82 -307.859
-13.4143 228.678 -307.341
-4.92694 229.079 -307.53
-46.8174 225.105 -308.241
-39.7947 226.223 -307.557
-12.7391 229.427 -307.637
-4.43969 229.918 -307.453
-3.78115 230.456 -307.017
-46.9875 224.115 -307.896
-38.417 225.406 -307.559
-47.7523 225.393 -307.612
-40.4248 226.61 -307.567
-12.2834 229.668 -307.201
-3.34807 230.353 -306.488
-49.3412 225.992 -306.383
-48.65 225.311 -306.821
-40.9051 226.472 -306.683
-11.6551 229.991 -306.66
-10.8437 230.829 -306.748
-47.9904 224.511 -307.132
-40.1576 226.212 -307.063
-12.5191 229.266 -306.838
-49.7693 226.596 -306.024
-41.7894 227.131 -306.665
-10.3024 231.191 -306.144
-3.10678 230.77 -305.937
-42.4204 227.167 -305.751
-9.81603 231.895 -306.014
-11.2037 229.868 -305.509
-10.7201 230.585 -305.873
-50.232 227.021 -305.301
-43.1906 227.947 -305.531
-9.48365 232.295 -305.136
-2.97227 231.404 -305.091
-43.8075 228.443 -304.843
-3.17537 232.143 -304.57
-50.5716 226.446 -304.991
-10.3923 230.5 -304.856
-10.0209 231.291 -305.378
-50.5042 227.822 -304.294
-44.2964 229.371 -304.603
-9.20304 232.872 -304.122
-3.66395 232.826 -304.518
-50.7704 226.961 -304.488
-44.0776 228.493 -304.143
-9.64651 231.505 -304.347
-3.26843 232.5 -303.916
-50.3976 228.644 -303.462
-44.6789 230.141 -303.953
-9.10826 233.81 -303.575
-4.24275 233.797 -303.78
-50.0791 229.191 -303.596
-4.61786 234.409 -303.048
-49.8537 229.785 -302.948
-44.7956 230.49 -303.181
-9.23469 234.205 -302.911
-5.08399 235.119 -302.899
-50.21 229.208 -302.947
-4.76732 234.602 -302.304
-49.4541 230.639 -302.291
-44.7672 231.017 -302.313
-9.54431 234.704 -302.32
-5.40373 235.592 -302.098
-49.1752 231.349 -302.241
-9.93743 235.007 -301.886
-9.60249 234.334 -301.754
-48.8999 231.936 -301.453
-44.516 231.554 -301.444
-10.6858 235.604 -301.682
-5.74868 235.999 -301.44
-12.8619 235.884 -299.972
-12.3165 235.853 -300.537
-11.5747 235.761 -301.073
-6.23281 236.291 -300.474
-49.2047 231.174 -301.554
-48.5526 232.513 -300.565
-44.0922 232.03 -300.665
-13.0803 236.543 -300.062
-6.89616 237.164 -300.711
-48.2196 233.265 -300.44
-43.6426 232.984 -300.51
-43.0954 234.032 -300.21
-12.9307 237.233 -300.112
-7.72954 237.304 -299.77
-43.6321 232.276 -300.037
-47.8114 233.376 -299.584
-42.769 234.58 -299.448
-12.664 236.969 -299.288
-8.61734 238.037 -299.963
-11.9957 237.484 -299.264
-11.2064 237.617 -299.021
-10.4584 237.834 -299.162
-9.50434 237.96 -299.423
-42.2113 233.962 -298.709
-47.0917 233.812 -298.968
-43.1561 235.094 -299.277
-46.1442 234.546 -298.799
-45.1742 234.706 -298.48
-44.3942 234.938 -298.646
-43.5898 235.052 -298.907
-29.1096 244.679 -289.622
-29.4181 246.775 -288.984
-29.4259 245.829 -289.222
-29.7432 247.173 -288.798
-29.1567 246.54 -288.898
-29.9769 246.247 -288.903
-30.0621 248.004 -288.43
-29.193 247.666 -288.313
-30.3966 248.122 -288.112
-30.2395 247.251 -288.472
-30.647 248.837 -287.508
-29.138 248.531 -287.554
-30.9788 249.331 -286.706