<VTKFile type="UnstructuredGrid" version="0.1" byte_order="BigEndian">
  <UnstructuredGrid>
    <Piece NumberOfPoints="14644" NumberOfCells="29284">
      <PointData>
        <DataArray type="Float64" Name="position" NumberOfComponents="3" format="ascii">
-44.8087 210.77 -278.748
-43.8495 212.737 -276.672
-44.5159 208.413 -280.492
-44.9239 208.89 -280.148
-44.5544 209.033 -279.998
-44.8822 210.53 -278.953
-45.2355 209.527 -279.533
-44.8196 209.808 -279.433
-44.9401 210.766 -278.752
-44.563 210.39 -278.775
-44.7938 210.94 -278.314
-45.2079 210.373 -278.797
-43.8234 212.596 -276.749
-44.5519 211.701 -277.314
-44.0761 212.473 -276.831
-43.5765 212.679 -276.416
-43.9462 212.762 -276.471
-44.4722 212.346 -276.621
-43.5678 212.953 -275.907
-43.0339 213.04 -275.422
-44.475 207.958 -280.782
-44.456 207.393 -280.913
-44.7367 208.103 -280.688
-44.2286 207.777 -280.655
-45.1201 208.19 -280.451
-44.935 207.525 -280.79
-45.4352 208.718 -279.889
-44.219 208.423 -280.148
-45.6934 209.462 -279.083
-44.3058 209.301 -279.39
-5.98586 213.401 -277.47
-45.8553 210.179 -278.107
-44.1608 209.867 -278.552
-45.2631 211.016 -277.81
-6.1445 213.604 -277.271
-45.2471 211.553 -276.783
-44.1114 210.825 -277.69
-43.8134 212.059 -276.862
-45.7618 210.815 -277.328
-7.5617 214.566 -275.688
-44.7997 212.259 -276.001
-43.1275 212.168 -276.135
-44.1546 212.762 -276.077
-42.9753 212.758 -275.744
-43.8656 212.964 -275.707
-42.3772 212.893 -275.007
-43.4905 213.04 -275.174
-42.859 213.106 -275.035
-44.2557 212.741 -275.503
-43.5411 213.009 -274.425
-42.6204 213.103 -274.364
-41.7252 213.127 -273.702
-44.2795 206.678 -281.035
-44.1042 205.731 -281.088
-43.232 205.067 -281.125
-44.6695 206.779 -281.004
-43.92 206.767 -280.782
-45.0791 207.029 -280.825
-45.1535 206.252 -280.85
-45.5113 207.501 -280.324
-43.8695 207.519 -280.279
-45.9189 206.413 -280.277
-5.38909 210.189 -279.124
-45.9915 208.412 -279.384
-43.909 208.217 -279.615
-5.99912 213.091 -277.582
-46.2772 207.282 -279.559
-5.25261 212.218 -277.857
-46.2428 209.162 -278.48
-43.9315 208.89 -278.799
-6.16963 213.404 -277.436
-5.66418 213.011 -277.517
-46.5771 208.107 -278.657
-5.19864 212.781 -277.39
-46.3697 209.674 -277.709
-43.8748 209.546 -277.898
-6.38355 213.554 -277.065
-5.89524 213.544 -277.104
-7.42953 214.293 -275.842
-6.21888 213.755 -276.84
-46.7157 208.856 -277.728
-46.1814 210.265 -277.311
-43.6317 210.116 -276.929
-7.68148 214.521 -275.652
-7.2794 214.48 -275.62
-46.0742 210.724 -276.509
-43.4349 211.261 -276.574
-7.75743 214.634 -275.326
-46.6258 209.674 -276.806
-6.74557 213.933 -276.266
-45.6141 211.482 -275.709
-42.7399 211.439 -275.669
-42.291 212.272 -275.277
-46.2275 210.781 -275.689
-8.2899 214.592 -274.906
-8.06413 214.768 -274.733
-44.9348 212.223 -275.147
-41.693 212.584 -274.72
-44.2269 212.723 -274.726
-41.3953 212.821 -274.158
-41.2345 212.488 -274.38
-44.0548 212.758 -273.926
-40.85 212.98 -273.343
-43.2838 213.024 -273.817
-42.4488 213.13 -273.338
-41.5049 213.176 -273.171
-40.2598 212.777 -273.193
-42.5968 213.008 -272.601
-41.7554 213.131 -272.666
-38.7738 202.827 -282.552
-44.4504 204.655 -281.229
-43.2771 204.409 -281.411
-42.0604 203.826 -281.637
-41.2276 203.618 -281.733
-40.7564 203.567 -281.656
-44.8753 205.411 -281.076
-42.491 204.554 -281.108
-45.2756 205.539 -280.951
-43.1149 205.567 -280.628
-45.3247 204.93 -280.945
-45.6647 205.616 -280.69
-43.4949 206.625 -280.298
-46.1736 205.642 -280.254
-5.34497 209.827 -279.224
-45.9746 205.001 -280.534
-5.49081 209.34 -279.37
-46.5474 206.189 -279.647
-43.5506 207.179 -279.729
-5.58792 210.057 -279.022
-5.22152 210.291 -279.05
-5.40365 210.425 -278.949
-5.15786 211.634 -278.246
-5.18127 210.905 -278.591
-46.8949 206.985 -278.773
-43.6458 207.78 -278.989
-5.43611 211.692 -278.177
-4.81668 211.526 -278.096
-5.86664 212.296 -277.721
-47.0858 207.796 -277.806
-43.6983 208.338 -278.108
-6.26025 213.031 -277.349
-4.71433 212.189 -277.379
-4.98259 212.87 -276.915
-47.123 208.546 -276.777
-43.657 208.882 -277.152
-6.67593 213.188 -276.732
-5.45208 213.278 -276.955
-7.30639 213.53 -275.933
-5.15346 213.255 -276.321
-47.0344 209.248 -275.672
-43.4494 209.333 -276.189
-7.87068 214.261 -275.443
-5.87705 213.768 -276.105
-46.5663 210.188 -275.857
-43.1593 210.461 -275.965
-8.4638 214.18 -274.826
-6.69885 214.31 -275.434
-5.30096 213.507 -275.789
-46.4666 210.499 -275.394
-42.5335 210.609 -275.07
-8.6818 214.498 -274.566
-7.37942 214.652 -274.755
-46.1886 210.881 -274.975
-41.916 211.441 -274.808
-41.4022 212.107 -274.542
-8.70465 214.696 -274.174
-8.05902 214.82 -274.229
-46.6938 210.084 -275.075
-6.7362 214.441 -274.753
-45.5624 211.63 -274.789
-40.6796 212.202 -273.911
-44.9709 212.152 -274.064
-40.4199 212.624 -273.514
-45.8839 211.23 -274.044
-10.385 214.084 -273.165
-9.65738 214.429 -273.461
-9.06983 214.737 -273.405
-8.4074 214.825 -273.589
-44.4307 212.51 -273.513
-39.9423 212.508 -273.052
-43.7087 212.715 -272.955
-40.1648 212.732 -272.749
-44.8123 212.174 -273.111
-43.0144 212.754 -272.134
-40.9299 213.058 -272.731
-41.9956 212.849 -271.935
-41.1632 212.988 -272.215
-43.7166 212.44 -271.985
-27.9999 195.677 -291.298
-26.7719 195.581 -291.468
-25.677 195.531 -291.559
-24.7576 195.467 -291.627
-23.8481 195.683 -291.449
-22.9576 195.65 -291.468
-30.475 196.212 -290.555
-29.1028 196.123 -290.791
-28.0695 196.35 -290.641
-27.11 196.201 -290.832
-26.1307 196.028 -291.077
-24.9799 196.084 -291.025
-33.886 196.603 -289.635
-32.8061 196.631 -289.816
-31.5568 196.625 -290.006
-30.5199 196.913 -289.792
-29.5548 196.804 -289.969
-28.5895 196.697 -290.171
-27.5681 196.736 -290.009
-26.1395 196.476 -290.351
-20.7997 197.439 -289.82
-20.086 197.733 -289.634
-19.1515 197.976 -289.554
-34.1476 197.145 -288.931
-33.1441 197.227 -289.055
-32.0113 197.244 -289.174
-31.0358 197.228 -289.308
-30.0106 197.338 -289.072
-28.669 197.113 -289.355
-19.5457 198.182 -289.156
-18.7665 198.355 -289.058
-34.3279 197.468 -288.353
-33.5229 197.603 -288.352
-32.412 197.66 -288.355
-31.1013 197.621 -288.459
-38.7788 202.764 -282.594
-38.9005 202.469 -282.519
-38.9653 202.812 -282.516
-38.6273 202.625 -282.465
-42.0556 203.38 -281.938
-41.469 203.326 -282.001
-40.6842 203.297 -282
-38.8759 202.778 -282.315
-42.0146 202.814 -282.118
-40.889 202.825 -282.253
-39.6801 202.834 -282.211
-42.73 203.471 -281.793
-40.2528 203.316 -281.794
-45.1378 203.975 -281.039
-43.9221 203.54 -281.495
-41.3047 203.872 -281.093
-40.4735 203.484 -281.38
-43.079 202.809 -281.875
-7.44852 206.935 -280.197
-45.7276 204.444 -280.751
-42.084 204.531 -280.404
-46.1713 204.438 -280.417
-42.6309 205.201 -279.971
-5.69557 208.655 -279.493
-45.8742 203.993 -280.643
-41.4657 204.011 -280.442
-7.55563 207.177 -279.839
-6.71031 207.661 -279.748
-5.85952 207.879 -279.841
-46.5864 205.059 -279.9
-43.1177 206.078 -279.729
-5.76559 209.416 -279.151
-5.16656 209.333 -279.383
-4.81984 209.918 -279.042
-42.71 205.305 -279.339
-4.8079 209.308 -279.335
-47.2033 205.776 -278.881
-43.3607 206.817 -279.125
-5.96912 209.787 -278.688
-4.47402 210.643 -278.408
-5.64815 210.487 -278.653
-47.6404 205.102 -278.606
-3.85354 210.335 -277.979
-47.4354 206.717 -277.895
-43.4547 207.144 -278.322
-5.76193 211.177 -278.148
-4.26067 211.276 -277.73
-6.15616 211.448 -277.511
-47.7947 205.738 -277.922
-3.75538 210.959 -277.19
-47.523 207.479 -276.876
-43.5679 207.628 -277.355
-6.40329 212.31 -277.099
-4.17631 211.747 -277.025
-47.892 206.502 -276.981
-3.84144 211.562 -276.354
-47.5127 208.129 -275.708
-43.5732 208.113 -276.381
-6.89749 212.438 -276.286
-4.50498 212.5 -276.268
-7.45042 212.627 -275.414
-47.8913 207.131 -276.013
-3.99641 212.012 -275.514
-47.3438 208.725 -275.048
-43.4078 208.525 -275.437
-7.98276 213.54 -275.151
-4.93062 213.171 -275.641
-43.0539 209.636 -275.268
-8.64788 213.541 -274.432
-5.32928 213.54 -274.968
-47.0905 209.311 -274.434
-42.4891 209.785 -274.414
-9.11498 214.185 -274.148
-6.16134 214.106 -274.813
-46.5381 210.324 -274.152
-41.7621 210.569 -274.203
-40.8822 211.323 -273.896
-10.6889 213.616 -273.072
-9.9593 213.92 -273.514
-6.72349 214.381 -273.896
-46.212 210.667 -273.082
-40.0326 211.612 -273.382
-10.8787 213.829 -272.819
-7.6386 214.71 -273.705
-45.5081 211.59 -273.241
-39.8803 212.107 -273.212
-10.3752 214.213 -272.791
-9.59809 214.546 -272.794
-8.78141 214.727 -272.87
-8.05433 214.715 -273.016
-39.3184 211.435 -272.756
-38.817 211.07 -272.33
-45.2163 211.804 -272.739
-39.4554 212.031 -272.453
-44.6901 211.971 -272.19
-39.8403 212.476 -272.164
-45.572 211.323 -272.459
-38.9138 211.373 -272.245
-44.0068 212.061 -271.463
-40.4415 212.808 -272.194
-42.8832 212.322 -271.261
-41.6789 212.461 -271.191
-40.8495 212.621 -271.583
-44.6049 211.628 -271.313
-40.0605 212.472 -271.743
-26.7984 186.364 -300.625
-25.5138 186.362 -300.783
-24.3109 186.432 -300.829
-23.1571 186.537 -300.802
-22.1253 186.633 -300.745
-27.9258 186.854 -300.034
-26.7815 187.171 -299.968
-25.8287 187.12 -300.126
-24.6717 187.16 -300.187
-23.4941 187.238 -300.181
-22.3483 187.313 -300.142
-21.2173 187.314 -300.128
-20.2979 187.486 -299.928
-30.3029 187.381 -298.992
-29.0721 187.352 -299.334
-28.0391 187.711 -299.224
-27.1452 187.719 -299.369
-26.1093 187.797 -299.418
-25.0033 187.853 -299.447
-23.82 187.926 -299.44
-22.6282 188.004 -299.405
-21.4612 188.066 -299.351
-20.2958 188.128 -299.268
-30.8217 188.195 -298.078
-29.5911 188.18 -298.395
-28.4848 188.252 -298.548
-27.4606 188.345 -298.616
-26.4553 188.393 -298.676
-25.3779 188.481 -298.644
-24.1813 188.577 -298.59
-22.9413 188.647 -298.573
-21.7288 188.73 -298.52
-20.5873 188.791 -298.471
-19.6051 188.843 -298.412
-31.807 188.696 -297.303
-30.7664 189.013 -297.237
-29.8848 188.928 -297.509
-28.8336 188.917 -297.701
-27.7983 188.935 -297.82
-26.7636 188.977 -297.859
-25.8313 188.962 -297.946
-24.6728 189.238 -297.578
-23.285 189.246 -297.656
-22.0393 189.312 -297.648
-20.7664 189.452 -297.523
-19.7261 189.405 -297.647
-32.3422 189.591 -296.236
-31.1186 189.59 -296.505
-30.0812 189.613 -296.659
-29.086 189.564 -296.845
-28.056 189.539 -296.966
-27.1244 189.474 -297.119
-25.877 189.662 -296.864
-19.7607 189.927 -296.863
-33.3857 190.204 -295.372
-32.1572 190.441 -295.379
-31.2975 190.307 -295.658
-30.2788 190.276 -295.817
-29.2285 190.217 -295.971
-28.3319 190.058 -296.225
-27.0927 190.176 -296.067
-34.5445 190.838 -294.497
-33.3042 191.126 -294.486
-32.3578 191.071 -294.693
-31.2917 191.045 -294.849
-30.4625 190.878 -295.098
-29.357 190.985 -295.001
-28.127 190.71 -295.326
-35.7381 191.441 -293.652
-34.5607 191.772 -293.645
-33.6098 191.755 -293.839
-32.5188 191.82 -293.944
-31.3732 191.829 -294.055
-29.9842 191.746 -294.194
-36.8069 191.879 -292.935
-35.8905 192.368 -292.804
-34.9322 192.402 -293.008
-33.8549 192.493 -293.135
-32.7672 192.562 -293.241
-31.6173 192.637 -293.309
-30.3886 192.679 -293.358
-28.9976 192.811 -293.267
-27.6279 193.217 -292.955
-26.3997 193.37 -292.845
-25.2477 193.448 -292.785
-24.1345 193.521 -292.711
-23.0765 193.612 -292.599
-28.4957 194.909 -291.845
-27.479 194.89 -291.922
-26.3001 194.887 -291.982
-25.2023 194.895 -292.004
-24.169 194.968 -291.947
-23.1604 195.105 -291.818
-36.5333 192.996 -292.046
-35.2649 193.167 -292.272
-34.1369 193.25 -292.439
-33.0389 193.309 -292.569
-31.9187 193.429 -292.621
-30.708 193.539 -292.657
-29.6194 193.509 -292.746
-28.3965 194.002 -292.452
-26.9857 194.1 -292.427
-25.7807 194.161 -292.409
-24.6552 194.221 -292.367
-23.5411 194.322 -292.263
-22.2224 194.525 -292.042
-20.8136 194.719 -291.795
-29.0423 195.351 -291.472
-22.3921 195.392 -291.586
-31.0588 195.415 -291.182
-30.055 195.378 -291.33
-23.1107 196.074 -291.084
-22.394 195.864 -291.252
-37.2482 193.583 -291.187
-36.3734 193.941 -291.273
-35.544 193.963 -291.526
-34.4119 194.081 -291.698
-33.2522 194.115 -291.884
-32.2911 194.066 -292.067
-31.1071 194.483 -291.895
-29.6214 194.473 -292.055
-21.3673 195.739 -291.227
-19.698 195.637 -291.175
-18.2247 195.921 -290.886
-17.0564 196.025 -290.719
-31.5493 195.86 -290.745
-23.9246 196.196 -290.951
-34.5787 195.922 -290.099
-33.6764 195.873 -290.368
-32.5343 195.866 -290.582
-24.3395 196.418 -290.584
-21.1716 197.159 -290.043
-20.4772 197.215 -290.128
-19.5186 197.401 -290.038
-37.456 194.322 -290.314
-36.5878 194.548 -290.593
-35.8001 194.596 -290.893
-34.7441 195.003 -290.85
-33.4663 195.002 -291.134
-32.1714 194.989 -291.36
-23.363 196.504 -290.446
-22.25 196.335 -290.75
-21.2366 196.7 -290.46
-20.1436 196.625 -290.585
-18.735 196.896 -290.333
-17.3466 196.922 -290.158
-16.0548 196.844 -290.071
-14.8652 197.035 -289.818
-14.078 197.092 -289.68
-34.8702 196.464 -289.44
-25.0522 196.484 -290.348
-21.2707 197.316 -289.795
-18.6932 197.7 -289.808
-26.687 196.783 -289.331
-25.4028 196.599 -289.637
-21.0014 197.563 -289.34
-20.1776 197.995 -289.167
-18.4549 198.118 -289.428
-36.8325 195.279 -289.628
-35.6321 195.472 -290.107
-24.3408 196.581 -289.988
-23.4459 196.695 -289.696
-22.085 196.945 -289.854
-17.7932 197.838 -289.531
-16.472 197.814 -289.332
-15.2213 197.779 -289.222
-14.2005 197.701 -289.154
-34.9875 197.022 -288.658
-27.6897 197.035 -289.232
-19.8525 198.213 -288.887
-18.039 198.383 -289.032
-29.1541 197.446 -288.339
-28.1263 197.176 -288.604
-19.2786 198.418 -288.444
-18.2381 198.603 -288.546
-36.7677 196.067 -288.549
-35.8373 196.261 -289.088
-27.3658 196.993 -288.786
-21.1829 197.568 -288.664
-20.3732 197.989 -288.664
-17.0809 198.607 -288.463
-15.5804 198.527 -288.467
-14.4305 198.401 -288.454
-34.8081 197.403 -288.009
-30.0829 197.649 -288.244
-34.0229 197.693 -287.758
-32.9607 197.847 -287.623
-31.6942 197.852 -287.463
-30.5009 197.741 -287.614
-36.7561 196.503 -287.554
-35.7367 196.899 -288.023
-29.7051 197.642 -287.767
-19.1998 198.498 -287.623
-18.0703 198.818 -287.618
-16.805 199.091 -287.448
-15.817 199.067 -287.615
-14.68 198.973 -287.676
-36.7244 196.661 -286.784
-35.9381 197.005 -287.007
-34.7926 197.447 -287.199
-33.5683 197.774 -286.995
-32.4806 197.888 -286.861
-17.0669 199.144 -286.757
-15.9823 199.281 -286.771
-14.8844 199.285 -286.86
-38.8464 201.578 -282.54
-39.4727 202.221 -282.536
-38.1849 201.976 -282.254
-41.994 202.18 -282.26
-41.3103 202.2 -282.37
-40.2891 202.259 -282.475
-42.0123 201.479 -282.295
-40.7087 201.539 -282.52
-39.7916 201.717 -282.595
-37.2592 201.402 -281.894
-36.6185 201.095 -281.733
-12.0535 203.536 -281.881
-11.8076 203.702 -281.881
-42.6369 202.206 -282.088
-38.4796 202.469 -282.098
-43.2627 202.298 -281.899
-38.945 202.641 -281.613
-7.91263 206.37 -280.471
-43.4162 201.676 -281.875
-9.52084 205.123 -280.997
-8.7274 205.285 -281.068
-7.61493 205.759 -280.872
-6.37756 205.716 -280.856
-43.8661 202.545 -281.646
-39.8336 203.108 -281.438
-8.16846 206.584 -279.982
-7.32192 206.541 -280.541
-45.6548 203.42 -280.766
-44.8413 202.979 -281.199
-40.3843 203.306 -280.664
-6.81946 206.977 -280.301
-5.84409 207.116 -280.166
-45.7493 202.447 -280.728
-44.5718 202.05 -281.379
-8.81712 205.769 -280.511
-6.65989 206.43 -280.6
-5.87798 206.276 -280.565
-46.5151 203.801 -280.103
-41.0614 203.689 -280.362
-7.87216 207.026 -279.54
-5.18211 207.979 -279.759
-41.5258 203.9 -279.73
-7.40768 207.428 -279.498
-7.10302 207.802 -279.182
-4.90969 208.779 -279.488
-46.8853 202.713 -279.916
-4.30731 208.184 -279.441
-3.65719 208.004 -279.132
-47.2537 204.673 -279.239
-42.2289 204.602 -279.501
-6.49548 208.635 -278.801
-4.42575 209.117 -279.201
-47.692 204.577 -278.768
-42.5613 204.833 -278.633
-4.10257 209.694 -278.677
-47.6488 203.779 -279.033
-7.15012 207.853 -278.703
-3.81 208.746 -278.914
-48.0686 204.768 -278.108
-43.0729 205.943 -278.658
-6.31679 209.594 -278.038
-3.47786 209.314 -278.222
-5.99758 210.374 -278.21
-48.4567 203.957 -278.081
-48.323 205.559 -276.943
-43.3387 206.391 -277.563
-6.08245 210.812 -277.817
-3.3212 209.986 -277.372
-6.30035 210.712 -277.359
-48.6657 204.646 -277.263
-6.23485 210.26 -277.701
-48.2137 206.347 -276.149
-43.5243 206.872 -276.571
-6.56007 211.227 -276.685
-3.34568 210.65 -276.457
-48.2076 206.749 -275.16
-43.5645 207.333 -275.618
-7.00177 211.52 -275.63
-3.50916 211.248 -275.516
-47.8597 207.523 -275.154
-7.47501 211.749 -274.738
-3.7973 211.8 -274.619
-47.6031 208.188 -274.387
-43.4161 207.733 -274.698
-8.05545 212.73 -274.61
-4.50618 212.716 -274.757
-43.0429 208.827 -274.544
-8.73452 212.757 -273.906
-5.01926 213.286 -274.004
-47.9836 207.365 -274.492
-47.2837 208.862 -273.39
-42.464 209.018 -273.711
-9.38985 213.464 -273.785
-5.68788 213.756 -273.607
-46.8519 209.718 -273.357
-41.8589 209.791 -273.692
-40.8911 210.221 -273.238
-39.8132 210.865 -272.957
-39.0589 210.892 -272.504
-10.8413 213.035 -272.897
-10.1671 213.279 -273.267
-6.36902 214.115 -272.964
-12.1465 212.274 -272.384
-5.08713 213.304 -273.371
-46.6418 209.85 -272.421
-38.7325 210.678 -272.062
-11.4564 213.121 -272.578
-7.18076 214.369 -272.66
-11.0687 213.724 -272.317
-10.2257 214.149 -272.02
-9.17372 214.473 -272.11
-8.22226 214.525 -272.26
-47.0389 209.271 -272.721
-40.5966 209.578 -272.486
-39.8795 210.069 -272.449
-39.1541 210.431 -272.276
-12.2339 212.633 -272.252
-6.46684 214.048 -272.387
-46.043 210.533 -271.977
-38.6721 210.982 -271.955
-45.3126 211.19 -271.597
-38.9115 211.297 -271.635
-10.304 213.859 -271.233
-9.48498 214.117 -271.316
-8.52952 214.25 -271.439
-44.8168 211.036 -270.74
-39.5019 212.011 -271.674
-43.7881 211.605 -270.669
-42.7105 211.76 -270.383
-41.819 211.988 -270.54
-40.8328 212.092 -270.784
-40.0144 212.079 -271.162
-27.2772 185.555 -301.089
-26.279 185.536 -301.238
-25.0657 185.592 -301.339
-23.8677 185.706 -301.349
-22.7296 185.875 -301.272
-28.1811 184.275 -301.439
-27.0879 184.688 -301.515
-25.7451 184.736 -301.702
-24.5193 184.84 -301.771
-23.2934 184.999 -301.739
-21.9632 185.281 -301.563
-20.6275 185.313 -301.414
-19.3143 185.366 -301.178
-18.0917 185.458 -300.949
-27.7915 186.003 -300.721
-21.8663 186.101 -301.121
-28.5295 186.045 -300.523
-21.3835 186.608 -300.744
-20.6074 186.858 -300.478
-30.4009 184.877 -300.51
-29.1954 184.637 -301.018
-28.2565 185.254 -301.029
-21.0599 186.093 -301.048
-19.8277 186.378 -300.689
-18.4715 186.383 -300.492
-17.1816 186.355 -300.351
-16.0592 186.614 -300.049
-29.0221 186.495 -300.074
-19.8217 187.205 -300.111
-30.8379 186.705 -299.382
-29.9374 186.582 -299.745
-31.6503 185.313 -299.839
-30.7033 185.917 -299.918
-29.4722 185.676 -300.46
-18.8041 187.398 -299.788
-17.5156 187.331 -299.685
-16.3409 187.34 -299.554
-15.2717 187.312 -299.414
-31.3662 187.277 -298.752
-19.5513 187.842 -299.513
-19.399 188.413 -298.918
-32.9308 186.036 -298.943
-31.7 186.393 -299.259
-18.703 188.325 -298.925
-17.6923 188.258 -298.868
-16.5285 188.216 -298.798
-15.4081 188.16 -298.716
-14.468 188.008 -298.649
-31.8411 187.859 -298.1
-18.8768 188.831 -298.393
-32.5655 187.989 -297.734
-34.088 186.646 -298.075
-33.2959 186.862 -298.314
-32.4946 187.146 -298.434
-17.9083 189.12 -297.956
-16.6656 189.09 -297.909
-15.4929 189.045 -297.859
-14.2951 188.931 -297.777
-33.0098 188.626 -296.999
-18.8052 189.367 -297.699
-23.5582 189.825 -296.675
-22.3419 189.837 -296.753
-21.2104 189.903 -296.759
-20.3655 190.009 -296.677
-34.8154 187.627 -297.077
-33.5281 187.636 -297.644
-17.8723 189.961 -296.881
-16.7558 189.922 -296.938
-15.5888 189.907 -296.929
-14.4298 189.86 -296.882
-13.4056 189.743 -296.807
-33.4507 189.279 -296.255
-24.6067 189.87 -296.549
-19.7405 190.33 -296.221
-18.8855 189.956 -296.866
-34.1856 189.42 -295.9
-25.0447 190.225 -295.965
-19.1102 190.365 -296.231
-35.7905 188.164 -296.224
-35.0344 188.379 -296.45
-34.2039 188.583 -296.617
-23.8776 190.43 -295.66
-22.569 190.374 -295.82
-21.4002 190.391 -295.911
-20.3659 190.416 -296.003
-18.0657 190.666 -295.874
-16.8247 190.689 -295.945
-15.6636 190.714 -295.972
-14.4943 190.721 -295.951
-13.2688 190.662 -295.876
-34.5502 189.92 -295.337
-25.857 190.329 -295.811
-35.2896 190.029 -295.009
-26.2538 190.721 -295.247
-36.7092 188.638 -295.394
-36.0351 188.923 -295.586
-35.2041 189.142 -295.774
-24.991 190.886 -294.995
-23.6671 191.038 -294.758
-22.6878 190.948 -294.919
-21.5323 190.944 -295.021
-20.3664 190.975 -295.12
-19.1028 190.947 -295.344
-17.8008 191.374 -294.897
-16.8524 191.399 -294.991
-15.7235 191.468 -295.027
-14.5706 191.526 -295.026
-13.4135 191.54 -294.984
-12.3888 191.478 -294.908
-35.6907 190.534 -294.45
-27.0425 190.849 -295.099
-36.3997 190.654 -294.109
-28.2918 191.383 -294.485
-27.435 191.238 -294.616
-37.3889 189.391 -294.523
-36.2908 189.724 -294.863
-26.2456 191.402 -294.394
-24.9849 191.585 -294.137
-23.9622 191.547 -294.159
-22.8018 191.566 -294.141
-21.6562 191.567 -294.188
-20.4827 191.614 -294.23
-19.2798 191.698 -294.269
-18.0581 191.873 -294.207
-16.8974 192.063 -294.123
-15.777 192.189 -294.124
-14.6323 192.292 -294.124
-13.4773 192.353 -294.097
-12.2654 192.344 -294.017
-36.7738 191.129 -293.584
-28.9902 191.62 -294.257
-37.3939 191.225 -293.227
-28.8857 192.093 -293.807
-28.043 192.406 -293.515
-26.9528 192.604 -293.337
-25.8545 192.715 -293.229
-24.7577 192.771 -293.164
-23.6638 192.862 -293.066
-38.0888 189.869 -293.776
-37.2748 190.431 -293.877
-28.3381 191.872 -293.965
-27.3958 191.854 -293.961
-26.3782 192.116 -293.687
-25.419 192.096 -293.675
-24.2974 192.155 -293.591
-23.0342 192.3 -293.451
-21.8054 192.274 -293.464
-20.6135 192.329 -293.443
-19.418 192.416 -293.426
-18.213 192.565 -293.38
-17.0182 192.743 -293.318
-15.8492 192.912 -293.274
-14.6938 193.051 -293.253
-13.5517 193.141 -293.234
-12.441 193.162 -293.194
-11.4357 193.128 -293.094
-37.6223 191.701 -292.718
-22.7864 193.025 -292.915
-37.353 192.3 -292.344
-22.2693 193.561 -292.569
-21.4002 193.808 -292.367
-38.2044 190.944 -292.9
-21.9931 192.985 -292.91
-20.7754 193.19 -292.733
-19.5602 193.193 -292.716
-18.3534 193.344 -292.625
-17.1354 193.519 -292.538
-15.9459 193.682 -292.474
-14.7696 193.842 -292.416
-13.6119 193.948 -292.378
-12.5031 193.967 -292.36
-11.48 193.874 -292.346
-37.4794 192.787 -291.832
-20.4868 194.039 -292.158
-37.9578 192.918 -291.396
-19.8953 194.636 -291.765
-18.9484 194.89 -291.552
-17.793 195.117 -291.342
-38.7489 191.588 -291.935
-38.0633 192.12 -292.057
-19.6845 193.983 -292.147
-18.5795 194.134 -292.015
-17.2577 194.447 -291.778
-16.0626 194.505 -291.745
-14.888 194.685 -291.627
-13.6997 194.817 -291.529
-12.5506 194.828 -291.487
-11.5037 194.71 -291.499
-38.0741 193.518 -290.673
-16.8743 195.361 -291.131
-16.2781 195.948 -290.709
-15.448 196.182 -290.495
-14.4655 196.408 -290.257
-78.1945 187.483 -290.372
-38.68 192.531 -291.094
-16.1433 195.313 -291.134
-15.1142 195.484 -290.982
-13.8622 195.816 -290.654
-12.6687 195.738 -290.614
-11.4946 195.661 -290.515
-38.089 194.144 -289.991
-13.6755 196.726 -289.903
-37.691 194.738 -289.653
-75.0918 188.843 -289.604
-74.9477 188.884 -289.582
-38.7594 193.516 -289.902
-12.7767 196.754 -289.661
-11.8606 196.406 -289.808
-10.9478 196.492 -289.425
-37.6259 195.281 -288.92
-13.4228 197.409 -289.247
-25.7526 196.452 -288.601
-24.3292 196.517 -289.047
-22.9985 196.749 -289.009
-21.9218 197.159 -288.894
-38.9213 194.166 -288.814
-38.2799 194.509 -289.287
-12.6233 197.729 -288.589
-11.6479 197.19 -288.781
-37.5914 195.808 -287.962
-26.7977 196.752 -288.56
-21.575 197.22 -288.151
-13.4808 198.154 -288.477
-28.3951 197.139 -287.737
-27.4854 196.873 -288.139
-20.8631 197.687 -288.162
-20.0803 198.063 -287.82
-38.3819 195.019 -288.312
-12.8112 198.47 -287.705
-11.8954 198.027 -287.662
-37.5214 196.132 -286.926
-29.1597 197.466 -287.615
-19.5656 198.235 -287.211
-13.6912 198.779 -287.721
-30.8086 197.666 -286.757
-29.718 197.462 -287.095
-18.8103 198.539 -286.965
-17.9314 198.873 -286.615
-38.2607 195.504 -287.418
-28.9261 197.235 -287.211
-20.0905 197.81 -287.116
-13.1227 198.941 -287.089
-12.3285 198.701 -286.742
-36.9863 196.469 -286.23
-31.6547 197.86 -286.695
-17.2259 199.021 -286.16
-13.8793 199.165 -286.968
-36.1929 196.818 -286.171
-35.1753 197.184 -286.276
-34.0728 197.489 -286.318
-32.9879 197.667 -286.278
-32.0398 197.729 -286.254
-16.2389 199.146 -285.948
-15.0641 199.293 -286.04
-13.9877 199.27 -286.165
-31.3474 197.699 -286.302
-17.7233 198.744 -286.003
-13.1014 199.109 -286.392
-42.0233 200.654 -282.339
-41.1592 200.664 -282.478
-39.7541 200.829 -282.595
-38.5447 200.646 -282.544
-37.52 200.882 -282.287
-36.7241 200.917 -281.977
-12.1017 203.263 -281.889
-11.753 203.451 -281.97
-42.0775 199.78 -282.322
-40.3969 199.723 -282.546
-38.9802 199.832 -282.575
-37.8161 199.984 -282.455
-36.9562 200.029 -282.265
-11.7905 202.921 -281.93
-10.9822 203.233 -281.953
-9.78699 203.318 -281.915
-42.8155 200.74 -282.122
-36.28 200.757 -281.774
-12.2562 203.315 -281.662
-11.3775 203.72 -281.869
-43.7353 200.88 -281.817
-36.8568 201.232 -281.266
-36.2621 200.877 -281.495
-11.9767 203.656 -281.655
-11.5204 203.848 -281.682
-9.94945 204.718 -281.258
-9.33151 204.714 -281.365
-8.1537 204.808 -281.339
-6.71925 204.823 -281.195
-44.5285 199.893 -281.562
-43.5435 200.067 -281.924
-10.5075 204.083 -281.524
-8.87884 203.963 -281.682
-7.48824 204.067 -281.546
-6.67003 204.07 -281.426
-44.2925 201.325 -281.563
-37.9484 201.963 -281.512
-10.2373 204.729 -280.935
-5.90879 205.229 -280.954
-45.7563 201.544 -280.806
-45.114 201.426 -281.162
-38.5601 202.158 -280.673
-9.77286 205.192 -280.554
-5.43124 205.654 -280.683
-45.6363 200.588 -280.919
-44.5012 200.681 -281.505
-5.44201 205.17 -280.857
-46.3955 201.748 -280.372
-39.4531 202.724 -280.667
-9.5777 205.41 -279.982
-5.06982 206.388 -280.302
-47.057 202.034 -279.882
-39.9935 202.737 -279.757
-8.89063 206 -279.805
-4.56592 207.182 -279.845
-3.86107 207.505 -279.448
-47.0787 201.166 -279.9
-4.27774 206.382 -280.009
-47.7163 202.482 -279.273
-40.7661 203.258 -279.688
-8.40284 206.449 -279.208
-3.38507 207.488 -279.122
-41.2642 203.264 -278.776
-7.65396 207.256 -278.984
-48.2075 201.665 -278.944
-48.2762 203.263 -278.607
-41.9592 203.968 -278.7
-7.44592 207.388 -278.224
-3.1748 208.185 -278.553
-48.7627 203.361 -278.044
-42.443 204.187 -277.75
-6.99159 208.059 -278.202
-48.9649 202.15 -278.172
-48.5701 202.669 -278.474
-49.0623 203.863 -277.293
-42.9598 205.216 -277.689
-6.71294 208.672 -277.713
-2.90384 208.926 -277.592
-49.2083 202.963 -277.623
-49.0873 204.541 -276.564
-43.3047 205.684 -276.725
-6.53182 209.755 -276.981
-2.87006 209.657 -276.578
-48.7805 205.111 -276.475
-48.6485 205.739 -275.601
-43.5166 206.157 -275.816
-6.733 210.285 -275.797
-3.01659 210.347 -275.571
-49.0367 204.993 -275.936
-48.4864 206.276 -274.744
-43.557 206.576 -274.898
-7.02354 210.664 -274.844
-3.25722 210.928 -274.501
-7.42072 210.898 -274.034
-3.61421 211.519 -273.805
-48.2624 206.758 -273.945
-43.4064 206.968 -273.993
-8.03997 211.874 -273.966
-4.07897 212.154 -273.646
-47.9072 207.537 -273.819
-43.0484 208.044 -273.82
-12.6353 211.672 -272.204
-8.72692 211.907 -273.316
-3.76369 211.642 -273.049
-47.6358 207.988 -273.076
-42.4401 208.244 -272.977
-12.7481 212.026 -272.125
-11.9609 211.682 -272.258
-9.4983 212.696 -273.328
-4.65465 212.841 -273.423
-41.5614 209.181 -272.885
-11.2464 212.317 -272.553
-10.3169 212.549 -272.893
-5.1307 213.136 -272.594
-47.9676 207.314 -273.219
-13.0355 211.602 -272.142
-47.2522 208.666 -272.417
-40.7797 208.916 -271.982
-12.4353 212.461 -271.884
-5.92272 213.716 -272.425
-46.9161 209.235 -272.072
-39.9207 209.415 -271.852
-39.2154 209.87 -271.793
-38.7887 210.249 -271.763
-11.8226 213.073 -272.007
-11.1257 213.506 -271.509
-6.51499 213.764 -271.672
-46.4164 209.621 -271.38
-38.6185 210.502 -271.423
-10.6425 213.491 -270.827
-7.56929 214.135 -271.571
-45.6472 210.413 -270.995
-38.7529 210.64 -270.753
-9.73158 213.616 -270.525
-8.71923 213.859 -270.68
-7.94355 213.925 -270.886
-11.2251 213.087 -270.801
-44.9974 210.279 -270.071
-39.2875 211.411 -270.937
-44.0417 210.808 -269.913
-42.9652 211.159 -269.807
-41.8815 211.36 -269.824
-40.8525 211.47 -270.037
-39.9475 211.48 -270.409
-24.9869 182.443 -302.187
-23.6133 182.523 -302.308
-22.406 182.659 -302.342
-21.2997 182.809 -302.303
-20.3284 182.916 -302.194
-19.5244 182.899 -301.998
-28.1304 183.664 -301.594
-27.3839 183.707 -301.737
-26.2377 183.865 -301.918
-25.0776 183.995 -302.043
-23.8842 184.102 -302.085
-22.6402 184.254 -302.038
-21.3788 184.376 -301.922
-20.1084 184.405 -301.739
-18.655 184.282 -301.425
-28.0015 182.941 -301.583
-26.4433 182.889 -301.973
-25.4659 183.274 -302.141
-24.4019 183.264 -302.243
-23.1824 183.362 -302.281
-21.9776 183.489 -302.243
-20.8229 183.579 -302.134
-19.7467 183.561 -301.949
-18.9842 183.343 -301.746
-28.8107 183.781 -301.355
-17.5944 184.875 -301.05
-30.5258 184.205 -300.66
-29.8338 184.029 -300.949
-17.2252 185.511 -300.796
-16.4451 185.846 -300.496
-30.5618 183.519 -300.627
-29.3146 183.201 -301.159
-16.7231 185.042 -300.774
-15.7009 185.415 -300.363
-14.7448 185.352 -299.935
-31.1822 184.419 -300.322
-15.6912 186.148 -300.199
-31.8528 184.655 -299.982
-15.3397 186.647 -299.876
-31.9145 183.971 -299.982
-14.8627 186.197 -299.834
-13.8751 185.91 -299.354
-32.5351 184.931 -299.573
-14.7737 186.911 -299.529
-33.4395 185.239 -299.066
-14.4542 187.394 -299.115
-34.8079 184.388 -298.437
-34.0082 184.23 -298.895
-33.2117 184.385 -299.318
-13.933 186.923 -299.077
-13.0449 186.543 -298.659
-33.9405 185.784 -298.622
-13.8275 187.702 -298.615
-34.6517 185.946 -298.17
-35.5422 184.837 -298.034
-35.0998 184.968 -298.286
-34.3738 185.065 -298.629
-12.7816 187.639 -298.008
-35.1785 186.646 -297.487
-13.5385 188.397 -297.977
-13.2986 189.109 -297.34
-35.4402 185.598 -297.824
-12.5963 188.789 -297.242
-11.7494 188.379 -296.977
-35.6436 187.334 -296.828
-12.6703 189.501 -296.76
-36.0719 187.495 -296.477
-36.1709 186.724 -296.737
-11.6175 189.482 -296.201
-36.5305 187.731 -296.023
-12.4591 190.185 -296.091
-37.0421 188.029 -295.512
-12.2634 190.882 -295.434
-37.165 187.274 -295.662
-11.5412 190.602 -295.367
-10.6552 190.215 -295.139
-37.599 188.413 -294.889
-11.6557 191.284 -294.871
-37.9695 187.626 -294.785
-10.6414 191.318 -294.368
-38.0634 189.163 -294.218
-11.4592 191.93 -294.224
-38.4322 189.385 -293.814
-11.2716 192.58 -293.587
-38.5249 188.638 -293.979
-10.5683 192.323 -293.538
-9.78266 191.95 -293.43
-38.8054 189.769 -293.192
-10.6831 192.959 -293.028
-39.2612 188.93 -293.1
-9.67645 192.926 -292.522