<VTKFile type="UnstructuredGrid" version="0.1" byte_order="BigEndian">
  <UnstructuredGrid>
    <Piece NumberOfPoints="15336" NumberOfCells="30664">
      <PointData>
        <DataArray type="Float64" Name="position" NumberOfComponents="3" format="ascii">
-43.8266 179.903 -254.677
-43.9765 180.361 -254.186
-2.40403 185.405 -253.197
-44.1436 180.966 -253.493
-2.93445 185.825 -252.815
-2.64919 186.116 -252.426
-44.2905 181.413 -252.974
-3.4261 186.629 -251.891
-43.219 182.702 -251.078
-4.21242 186.958 -251.297
-3.98852 187.312 -251.082
-4.54093 187.389 -250.677
-26.8249 170.339 -267.325
-28.9114 171.025 -266.398
-28.5059 171.04 -266.276
-43.8452 179.644 -254.907
-43.8564 179.137 -255.117
-3.00428 182.384 -255.207
-44.1403 179.891 -254.608
-43.6136 179.407 -254.905
-2.30439 184.802 -253.759
-44.3795 179.237 -254.853
-2.11286 184.31 -254.061
-44.4043 180.578 -253.881
-43.621 179.877 -254.397
-2.67108 185.064 -253.48
-1.98804 184.743 -253.592
-3.11664 185.3 -253.017
-44.6953 179.914 -254.134
-44.5201 181.171 -253.212
-43.7284 180.471 -253.673
-3.38998 185.968 -252.463
-1.99793 185.449 -252.667
-2.35402 186.209 -251.974
-44.8499 180.652 -253.323
-44.5012 181.501 -252.819
-43.8531 181.23 -252.748
-3.88511 186.262 -251.868
-2.85336 186.676 -251.622
-44.302 181.674 -252.418
-43.2523 182.509 -251.196
-4.5016 186.482 -251.173
-44.7577 181.324 -252.545
-2.43963 186.504 -251.365
-43.3991 182.613 -251.225
-42.8317 182.575 -250.796
-4.74864 187.057 -250.778
-3.4396 187.16 -251.086
-43.3255 182.67 -250.959
-3.89671 187.504 -250.69
-43.7167 182.128 -251.542
-5.10448 187.254 -250.145
-4.27365 187.574 -250.563
-4.6745 187.517 -249.931
-42.8494 182.845 -250.293
-41.9052 183.043 -249.759
-41.2197 183.147 -249.469
-5.56404 187.039 -249.766
-4.11609 187.581 -250.24
-25.8246 162.053 -276.956
-24.5641 162.023 -277.176
-23.3741 162.092 -277.219
-22.1099 162.235 -277.16
-20.8503 162.369 -277.123
-19.7641 162.488 -277.087
-26.9279 162.435 -276.29
-25.886 162.664 -276.221
-24.9258 162.6 -276.432
-23.9229 162.529 -276.645
-22.7785 162.794 -276.375
-21.2598 162.949 -276.319
-20.0015 162.981 -276.428
-18.8499 163.049 -276.448
-17.8093 163.303 -276.188
-27.8416 162.792 -275.564
-26.9815 163.024 -275.492
-26.316 162.967 -275.725
-25.3282 163.154 -275.564
-23.9648 163.079 -275.825
-20.2061 163.434 -275.717
-19.1549 163.526 -275.713
-18.1068 163.655 -275.643
-17.2395 163.753 -275.583
-28.0889 163.224 -274.841
-27.3231 163.359 -274.859
-26.2961 163.433 -274.964
-23.8677 168.307 -269.309
-22.6328 168.323 -269.368
-21.5211 168.364 -269.387
-29.8489 168.526 -268.584
-28.5948 168.576 -268.689
-27.4264 168.669 -268.719
-26.2089 168.718 -268.762
-24.8961 168.689 -268.88
-23.8611 168.981 -268.694
-22.9761 168.975 -268.751
-21.8206 169.051 -268.737
-20.5126 169.082 -268.801
-19.1698 169.383 -268.627
-18.0476 169.579 -268.529
-26.9275 170.196 -267.467
-33.5364 168.913 -267.613
-32.2422 168.91 -267.89
-30.9091 168.937 -268.104
-29.8056 169.397 -267.906
-28.8185 169.402 -268.008
-27.8274 169.33 -268.153
-26.6792 169.607 -267.94
-25.3799 169.362 -268.148
-24.2437 169.346 -268.196
-23.3567 169.36 -268.272
-22.3535 169.564 -268.044
-20.967 169.761 -267.97
-19.6233 169.946 -267.964
-18.3262 170.204 -267.868
-17.0226 170.353 -267.859
-15.7708 170.683 -267.619
-27.0858 170.35 -267.339
-26.3873 170.149 -267.258
-29.2471 170.774 -266.673
-28.5613 170.739 -266.735
-26.922 170.379 -267.108
-34.441 169.301 -266.933
-33.4198 169.718 -266.841
-32.4797 169.708 -267.084
-31.2848 169.757 -267.286
-30.2791 169.803 -267.456
-29.2207 170.179 -267.269
-27.695 170.206 -267.324
-25.6702 169.81 -267.523
-24.634 169.699 -267.497
-23.3647 169.672 -267.591
-20.0404 170.283 -267.318
-18.7736 170.694 -267.044
-17.3907 171.02 -267.029
-16.0874 171.291 -266.947
-14.7931 171.467 -266.862
-13.6404 171.785 -266.545
-29.3913 171.008 -266.238
-27.8605 170.772 -266.312
-28.9185 171.156 -265.95
-28.3632 171.084 -265.882
-34.7754 169.869 -266.07
-33.7968 170.128 -266.176
-32.7274 170.311 -266.285
-31.5852 170.405 -266.456
-30.1978 170.557 -266.6
-27.1549 170.49 -266.636
-17.728 171.424 -266.165
-16.4602 171.793 -266.144
-15.1834 172.073 -266.054
-13.9888 172.257 -265.959
-13.0128 172.314 -265.885
-34.1818 170.482 -265.347
-33.0641 170.688 -265.471
-31.9125 170.828 -265.6
-30.8712 170.894 -265.802
-29.7454 171.12 -265.484
-28.7092 171.132 -265.35
-16.8194 172.003 -265.398
-15.5605 172.447 -265.155
-14.2827 172.667 -265.194
-13.1798 172.729 -265.201
-33.3954 170.845 -264.678
-32.2545 171.014 -264.728
-30.9377 171.154 -264.867
-14.4679 172.875 -264.392
-13.3635 172.972 -264.424
-4.45599 179.895 -256.897
-42.7336 176.696 -256.271
-4.474 180.325 -256.319
-3.60122 180.599 -256.409
-2.63351 180.932 -256.17
-43.6734 178.445 -255.443
-3.21366 182.021 -255.298
-43.4713 177.512 -255.797
-42.7907 177.045 -255.94
-3.84334 181.16 -255.634
-2.95212 181.715 -255.642
-2.13188 181.668 -255.541
-44.075 178.532 -255.327
-43.3455 178.476 -255.234
-3.10991 182.351 -255.038
-2.87829 182.371 -255.253
-44.5064 178.704 -255.046
-2.86534 182.585 -255.048
-2.16811 183.825 -254.346
-44.5602 177.952 -255.278
-2.42496 182.887 -254.813
-44.9479 178.947 -254.47
-43.3029 179.092 -254.636
-2.4719 184.178 -254.085
-1.77725 183.713 -254.149
-45.3327 178.034 -254.578
-45.3115 179.788 -253.34
-43.358 179.644 -253.906
-2.90509 184.491 -253.577
-1.50043 184.402 -253.283
-3.27804 184.632 -252.987
-45.637 178.713 -253.7
-45.2013 180.654 -252.592
-43.4097 180.276 -252.999
-3.57686 185.429 -252.415
-1.33548 184.884 -252.25
-0.967108 184.609 -251.729
-45.1483 181.14 -251.556
-43.2475 181.021 -251.883
-4.10582 185.589 -251.646
-1.92207 185.88 -251.525
-44.4949 181.83 -251.714
-43.0041 181.99 -251.175
-4.70217 185.798 -250.801
-2.29651 186.446 -250.822
-44.1957 182.203 -251.214
-42.2494 181.983 -250.524
-5.15103 186.685 -250.364
-2.86386 186.885 -250.688
-43.8156 182.528 -250.63
-41.8571 182.623 -250.096
-41.2284 182.932 -249.66
-5.74546 186.606 -249.63
-44.5916 181.955 -250.903
-2.46586 186.586 -250.136
-43.3403 182.839 -250.079
-40.5933 182.936 -249.184
-5.86464 186.957 -249.386
-3.57613 187.337 -250.291
-42.7989 182.973 -249.478
-41.5874 183.186 -249.252
-40.9928 183.185 -249.189
-5.60991 187.216 -249.118
-4.751 187.433 -248.987
-4.05012 187.426 -249.584
-43.7889 182.655 -249.817
-42.9437 182.902 -248.697
-42.003 183.105 -248.701
-40.7623 183.107 -248.618
-39.8105 182.935 -248.128
-6.43705 186.863 -248.27
-5.96618 187.137 -248.164
-5.29429 187.302 -248.286
-25.2138 159.167 -279.352
-23.9103 159.194 -279.508
-22.6794 159.283 -279.583
-21.4517 159.422 -279.594
-20.2265 159.584 -279.558
-19.0163 159.733 -279.489
-17.8116 159.843 -279.392
-16.597 159.913 -279.257
-15.4844 160.013 -279.095
-27.718 159.514 -278.632
-26.4144 159.568 -278.898
-25.3818 159.993 -278.812
-24.3433 159.961 -278.975
-23.1399 160.027 -279.057
-21.9144 160.159 -279.061
-20.6664 160.346 -278.997
-19.4196 160.521 -278.913
-18.2022 160.648 -278.831
-17.0001 160.742 -278.735
-15.815 160.789 -278.633
-14.6458 160.726 -278.549
-26.2923 161.382 -277.548
-25.2753 161.37 -277.727
-24.0663 161.409 -277.848
-22.8431 161.503 -277.874
-21.6112 161.648 -277.831
-20.4337 161.84 -277.73
-29.8459 159.882 -277.646
-28.7789 159.912 -278.053
-27.9182 160.276 -278.082
-27.1279 160.203 -278.329
-26.1048 160.61 -278.224
-24.7927 160.682 -278.384
-23.5879 160.74 -278.477
-22.3668 160.854 -278.488
-21.1267 161.038 -278.418
-19.7803 161.348 -278.213
-18.5168 161.442 -278.155
-17.3041 161.565 -278.037
-16.0955 161.626 -277.947
-14.8763 161.617 -277.856
-13.5672 161.489 -277.725
-12.4826 161.605 -277.338
-26.8191 161.765 -277.071
-19.5379 162.076 -277.555
-27.566 161.815 -276.826
-19.0117 162.514 -277.111
-18.2274 162.755 -276.85
-30.482 160.666 -276.797
-29.3557 160.668 -277.277
-28.4424 160.692 -277.59
-27.3827 161.045 -277.589
-18.7671 162.105 -277.537
-17.588 162.391 -277.227
-16.3351 162.456 -277.126
-15.1096 162.487 -277.039
-13.8714 162.457 -276.943
-12.5959 162.403 -276.755
-27.9425 162.199 -276.292
-17.4424 163.047 -276.518
-28.5711 162.31 -275.929
-21.9171 163.336 -275.614
-20.9911 163.451 -275.566
-17.1121 163.44 -276.033
-31.4825 161.299 -275.803
-30.4043 161.513 -276.066
-29.7186 161.303 -276.567
-28.6013 161.531 -276.758
-16.5603 163.242 -276.246
-15.3139 163.319 -276.112
-14.0709 163.321 -276.058
-12.8916 163.27 -275.987
-11.8575 163.183 -275.866
-28.7288 162.819 -275.184
-22.8992 163.299 -275.561
-20.3815 163.765 -275.104
-16.6036 163.757 -275.598
-24.3894 163.585 -274.892
-23.4202 163.539 -275.062
-19.4685 163.919 -274.985
-18.3576 164.064 -274.926
-17.3237 164.157 -274.926
-16.5901 164.113 -275.071
-32.452 161.821 -274.874
-31.4578 162.194 -274.857
-30.5649 162.176 -275.23
-29.4956 162.106 -275.771
-22.361 163.759 -274.744
-21.1767 163.79 -274.893
-15.5938 164.156 -275.033
-14.1955 164.144 -275.069
-12.9738 164.115 -275.055
-11.8879 163.968 -275.068
-28.5495 163.353 -274.44
-25.3434 163.64 -274.72
-27.742 163.686 -274.166
-26.7076 163.857 -274.124
-25.8043 163.893 -274.205
-33.023 162.675 -273.739
-31.805 162.779 -274.018
-30.7075 162.918 -274.217
-29.5067 163.017 -274.534
-24.7372 164.089 -273.916
-23.3959 164.004 -274.136
-22.3021 164.213 -273.8
-21.3078 164.243 -273.939
-20.0412 164.27 -274.198
-18.6662 164.489 -274.103
-17.4581 164.634 -274.09
-16.2534 164.686 -274.19
-15.0947 164.97 -273.892
-14.1888 164.922 -274.037
-13.015 164.931 -274.052
-11.7291 164.909 -273.997
-34.0383 163.232 -272.835
-32.9056 163.532 -272.812
-32.0016 163.505 -273.064
-30.8956 163.609 -273.226
-29.7198 163.755 -273.373
-28.426 163.938 -273.506
-27.0773 164.285 -273.294
-25.756 164.403 -273.298
-24.6033 164.626 -272.98
-23.6677 164.514 -273.163
-22.7401 164.455 -273.272
-21.6164 164.755 -272.834
-20.2631 164.846 -273.053
-18.9562 164.984 -273.158
-17.6848 165.153 -273.168
-16.4621 165.305 -273.169
-15.2797 165.471 -273.117
-14.1697 165.605 -273.073
-13.0712 165.672 -273.078
-11.9177 165.72 -273.036
-10.7398 165.775 -272.883
-77.9649 158.312 -272.409
-77.7925 158.404 -272.369
-35.0236 163.729 -271.998
-34.0335 164.091 -271.932
-33.1572 164.103 -272.112
-32.1241 164.203 -272.206
-31.042 164.305 -272.301
-29.8872 164.447 -272.376
-28.6802 164.615 -272.433
-27.4388 164.809 -272.423
-26.1914 164.98 -272.37
-24.9643 165.097 -272.296
-23.7794 165.1 -272.285
-22.6292 164.955 -272.412
-20.4461 165.458 -271.986
-19.1386 165.59 -272.154
-17.8761 165.739 -272.219
-16.6385 165.904 -272.226
-15.4297 166.075 -272.202
-14.2593 166.236 -272.166
-13.1262 166.361 -272.142
-12.0158 166.439 -272.12
-10.9407 166.471 -272.071
-9.99025 166.45 -271.985
-35.5095 164.544 -271.036
-34.418 164.661 -271.248
-33.3675 164.772 -271.355
-32.313 164.865 -271.435
-31.2006 164.998 -271.47
-30.0379 165.149 -271.497
-28.8478 165.305 -271.527
-27.6553 165.455 -271.55
-26.4929 165.581 -271.562
-25.3165 165.726 -271.512
-24.0518 165.815 -271.465
-22.6874 165.741 -271.491
-20.4251 166.288 -271.049
-19.2292 166.323 -271.217
-18.0009 166.435 -271.291
-16.7704 166.579 -271.306
-15.55 166.742 -271.286
-14.3517 166.908 -271.251
-13.1866 167.053 -271.221
-12.0644 167.151 -271.203
-10.9995 167.179 -271.197
-10.0183 167.112 -271.204
-24.4362 167.516 -269.921
-23.4415 167.516 -269.982
-22.2261 167.558 -269.993
-35.943 165.387 -270.109
-34.7724 165.41 -270.434
-33.6398 165.47 -270.611
-32.5461 165.533 -270.718
-31.4367 165.686 -270.728
-30.2418 165.885 -270.704
-29.0191 166.039 -270.723
-27.8192 166.174 -270.755
-26.6556 166.269 -270.807
-25.691 166.265 -270.911
-24.4956 166.656 -270.645
-23.0578 166.658 -270.69
-21.4854 166.712 -270.646
-20.2133 167.137 -270.364
-19.2606 167.156 -270.416
-18.0831 167.251 -270.436
-16.8643 167.36 -270.434
-15.6411 167.501 -270.398
-14.4282 167.653 -270.348
-13.2398 167.795 -270.301
-12.091 167.898 -270.272
-11.0066 167.926 -270.275
-10.0102 167.849 -270.318
-24.9092 167.928 -269.543
-21.2766 167.736 -269.887
-30.4847 167.605 -269.208
-29.4862 167.665 -269.285
-28.2848 167.764 -269.341
-27.0833 167.859 -269.389
-25.8885 167.911 -269.463
-20.7155 168.303 -269.473
-19.8346 168.542 -269.312
-18.7445 168.78 -269.164
-36.7351 165.842 -269.357
-35.8896 166.184 -269.413
-35.0618 166.188 -269.652
-33.9284 166.258 -269.833
-32.7462 166.277 -270.005
-31.7792 166.247 -270.159
-30.596 166.706 -269.921
-29.2503 166.827 -269.984
-28.0203 166.952 -270.024
-26.8126 167.049 -270.08
-25.5387 167.094 -270.175
-20.4853 167.721 -269.919
-19.4457 167.913 -269.807
-18.1919 168.187 -269.639
-16.954 168.231 -269.636
-15.7235 168.36 -269.557
-14.4984 168.488 -269.476
-13.2933 168.612 -269.396
-12.1207 168.703 -269.336
-10.9901 168.732 -269.305
-9.96888 168.636 -269.363
-30.9587 168.041 -268.809
-17.8486 169.037 -268.988
-34.2254 168.059 -268.213
-33.2227 168.032 -268.453
-31.9856 168.027 -268.669
-17.2595 169.587 -268.553
-16.3922 169.871 -268.319
-37.0233 166.549 -268.493
-36.1703 166.72 -268.795
-35.3854 166.779 -269.032
-34.3227 167.152 -268.968
-32.9732 167.133 -269.24
-31.6331 167.133 -269.434
-17.0666 169.035 -268.99
-15.8352 169.32 -268.751
-14.5894 169.396 -268.658
-13.3676 169.514 -268.518
-12.181 169.569 -268.417
-11.032 169.581 -268.332
-9.84663 169.538 -268.25
-34.5908 168.517 -267.695
-15.512 170.178 -268.062
-35.2586 168.565 -267.362
-21.6093 169.937 -267.449
-20.8417 170.125 -267.316
-14.9547 170.744 -267.571
-14.1132 171.052 -267.26
-37.144 167.232 -267.645
-36.4261 167.269 -268.108
-35.3568 167.655 -268.206
-14.7244 170.212 -267.997
-13.5007 170.52 -267.644
-12.2803 170.493 -267.524
-11.1534 170.445 -267.407
-10.0819 170.365 -267.283
-9.13547 170.265 -267.143
-35.4902 169.108 -266.577
-22.3945 169.834 -267.401
-20.4303 170.296 -266.869
-13.2674 171.382 -266.898
-25.3045 169.941 -266.668
-23.8658 169.734 -266.752
-22.712 169.799 -266.851
-19.6333 170.564 -266.587
-18.7091 171.017 -266.185
-12.8908 171.879 -266.385
-37.2501 167.831 -266.736
-36.2413 168.106 -267.246
-21.9301 169.94 -266.979
-21.1733 170.091 -266.856
-12.395 171.458 -266.647
-11.3081 171.301 -266.533
-10.2816 171.159 -266.377
-9.29536 170.961 -266.201
-35.5086 169.647 -265.81
-26.4336 170.317 -266.593
-18.1849 171.348 -265.832
-12.3589 172.15 -265.956
-35.0074 170.144 -265.44
-26.9349 170.421 -265.738
-17.7327 171.573 -265.352
-36.4748 168.878 -265.867
-25.9711 170.12 -266.031
-18.5366 171.092 -265.529
-11.4752 172.135 -265.618
-10.5566 171.812 -265.674
-9.60175 171.753 -265.218
-34.7885 170.411 -264.912
-27.939 170.883 -265.473
-17.0585 171.931 -264.859
-12.2547 172.594 -265.286
-34.2184 170.673 -264.63
-29.1315 171.101 -264.551
-28.3345 170.91 -264.802
-16.2755 172.291 -264.623
-15.3499 172.68 -264.245
-36.4483 169.383 -264.601
-35.5787 169.903 -264.978
-17.509 171.566 -264.698
-11.4158 172.725 -264.634
-10.3946 172.368 -264.712
-33.8058 170.741 -264.1
-29.963 171.248 -264.565
-14.5991 172.848 -263.8
-12.3371 172.94 -264.517
-32.7277 170.875 -263.859
-31.4663 171.101 -264.014
-30.4444 171.196 -264.042
-13.562 172.915 -263.607
-12.3981 172.998 -263.749
-36.3623 169.56 -263.835
-35.7529 169.917 -263.999
-34.7647 170.392 -264.135
-29.7079 171.179 -264.057
-15.1255 172.623 -263.662
-11.5867 172.951 -263.959
-10.7172 172.761 -263.881
-39.0414 173.954 -258.69
-38.0121 173.797 -258.818
-37.2465 173.824 -258.655
-36.527 173.657 -258.725
-5.77622 177.671 -258.165
-4.99074 179.257 -257.256
-41.633 174.535 -257.878
-40.2047 174.344 -258.221
-39.3573 174.372 -258.211
-38.4772 174.231 -258.178
-6.49452 177.792 -257.821
-5.77434 178.202 -257.821
-4.8137 178.574 -257.737
-3.68381 178.647 -257.65
-5.23028 179.501 -256.697
-4.40938 179.442 -257.317
-42.647 176.18 -256.634
-3.85583 179.883 -257.015
-2.92961 179.881 -256.787
-42.9386 174.933 -257.311
-42.0799 175.453 -257.09
-40.9529 174.924 -257.543
-39.8317 174.71 -257.514
-5.86747 178.584 -257.322
-3.81202 179.302 -257.358
-3.14196 179.052 -257.293
-43.1447 176.63 -256.375
-42.1023 176.095 -256.484
-4.98914 179.971 -256.122
-2.2352 180.459 -256.32
-43.6697 176.739 -256.21
-4.54873 180.486 -255.837
-2.03498 180.971 -255.984
-44.0183 175.299 -256.707
-43.2605 175.959 -256.678
-41.1132 175.388 -256.752
-1.77136 180.516 -256.048
-44.1553 177.154 -255.845
-42.3909 176.654 -256.038
-4.36553 180.698 -255.329
-1.53855 181.07 -255.575
-44.7028 177.114 -255.585
-42.6732 177.283 -255.41
-3.97468 181.197 -255.142
-44.8944 175.61 -256.02
-44.3007 176.369 -256.095
-45.118 177.416 -255.14
-42.9782 178.244 -254.833
-3.53769 181.843 -254.738
-1.35879 182.166 -254.729
-45.5689 177.29 -254.707
-2.99106 182.682 -254.687
-45.2231 176.586 -255.349
-0.659326 182.208 -253.964
-45.9114 177.726 -253.935
-43.0237 178.658 -254.15
-2.89009 183.485 -254.085
-1.11075 183.293 -253.758
-3.2244 182.682 -254.146
-0.605987 183.03 -253.181
-46.1965 178.345 -252.849
-43.1114 179.173 -253.274
-3.1152 183.976 -253.464
-0.97875 183.974 -252.925
-45.8458 179.235 -252.841
-3.35208 183.874 -252.973
-0.875954 184.264 -252.276
-3.25346 183.199 -253.495
-0.63452 183.656 -252.537
-45.7047 180.016 -252.083
-43.1048 179.712 -252.298
-3.68415 184.426 -252.206
-0.601182 183.917 -251.768
-0.848947 184.52 -251.167
-46.1329 179.134 -252.133
-45.7601 180.374 -250.82
-42.8655 180.102 -251.321
-4.21109 184.724 -251.175
-1.29654 185.17 -251.065
-42.6249 181.158 -250.931
-4.7604 184.957 -250.274
-46.177 179.465 -251.22
-0.946724 184.699 -250.506
-45.1638 181.35 -250.179
-41.877 181.161 -250.13
-5.31798 185.916 -249.977
-1.90205 185.983 -250.287
-44.4303 182.21 -250.081
-41.2854 181.9 -249.81
-40.7699 182.484 -249.498
-5.92979 185.925 -249.189
-2.31715 186.374 -249.535
-44.2391 182.4 -249.567
-39.8334 182.38 -248.89
-6.23193 186.607 -248.893
-3.062 186.863 -249.319
-43.8551 182.52 -248.991
-39.7756 182.762 -248.556
-6.88657 186.32 -248.054
-4.03714 187.239 -248.668
-44.6581 181.961 -249.375
-2.41141 186.345 -248.97
-43.396 182.652 -248.278
-39.2264 182.646 -248.033
-6.92387 186.576 -247.678
-4.64809 187.33 -248.291
-42.5192 182.868 -247.958
-41.429 183.064 -248.015
-40.3082 182.982 -247.57
-39.3938 182.783 -247.684
-6.44956 186.845 -247.568
-5.67546 187.039 -247.506
-4.84238 187.129 -247.635
-43.9934 182.275 -248.188
-4.21851 187.121 -247.926
-40.577 182.882 -246.849
-19.0429 157.387 -280.418
-25.5695 158.378 -279.683
-24.5981 158.365 -279.824
-23.381 158.42 -279.957
-22.1554 158.531 -280.033
-20.9205 158.664 -280.051
-19.7123 158.835 -280.003
-18.5326 158.961 -279.908
-17.3147 159.029 -279.762
-15.9513 159 -279.52
-26.4564 157.263 -279.728
-25.3437 157.554 -279.935
-24.0008 157.552 -280.154
-22.7574 157.664 -280.295
-21.541 157.787 -280.37
-20.2212 157.862 -280.386
-19.135 158.226 -280.245
-17.9879 158.1 -280.142
-16.8091 158.33 -279.909
-16.1543 158.327 -279.753
-26.1571 158.779 -279.401
-14.9946 159.508 -279.202
-27.9697 158.751 -278.937
-27.0705 158.75 -279.183
-14.7088 160.05 -278.976
-28.7912 157.652 -278.802
-27.6005 157.856 -279.272
-26.3975 158.086 -279.599
-14.1248 159.636 -278.923
-13.2177 159.534 -278.587
-28.5508 159.168 -278.571
-14.1513 160.276 -278.738
-30.0425 159.266 -277.882
-29.3668 159.186 -278.221
-13.711 160.7 -278.353
-12.6432 160.732 -277.887
-30.004 158.407 -278.095
-28.749 158.499 -278.715
-13.4443 160.163 -278.529
-12.7479 159.982 -278.274
-30.7888 159.599 -277.321
-11.8164 161.276 -277.25
-31.4578 158.762 -277.217
-10.9093 161.447 -276.676
-31.4225 160.395 -276.58
-11.7353 161.982 -276.798
-32.1441 160.596 -276.099
-11.6506 162.617 -276.311
-32.5696 159.227 -276.429
-31.9603 159.829 -276.61
-10.9199 162.358 -276.158
-10.1207 161.959 -275.933
-32.4843 161.063 -275.582
-11.086 162.988 -275.764
-32.9577 161.211 -275.229
-33.1087 160.414 -275.651
-10.011 162.954 -275.192
-33.5644 161.566 -274.611
-10.9479 163.649 -275.1
-34.343 160.769 -274.759
-9.93609 164.091 -274.268
-8.85329 163.601 -274.04
-34.0478 162.341 -273.736
-10.8612 164.492 -274.269
-34.7055 162.491 -273.328
-10.676 165.168 -273.548
-35.3114 161.096 -273.945
-34.6332 161.747 -273.964
-9.95704 164.962 -273.523
-8.98961 164.661 -273.337
-8.06383 164.259 -273.123
-35.0418 162.934 -272.77
-10.0837 165.531 -273.021
-78.12 158.026 -272.403
-77.8626 158.276 -272.431
-35.6871 163.008 -272.372
-21.3143 165.167 -272.058
-9.85572 165.965 -272.501
-78.2767 157.586 -272.341
-36.1237 161.472 -273.108
-35.4848 162.19 -273.137
-9.20355 165.603 -272.613
-7.98368 165.216 -272.333
-78.2214 158.06 -272.231
-77.6915 158.278 -272.275
-36.1255 163.63 -271.588
-21.8317 165.049 -272.158
-21.092 165.56 -271.583
-9.29357 166.285 -271.981
-77.896 158.308 -272.176
-77.6646 158.333 -272.131
-36.4868 162.515 -272.193
-21.5593 165.277 -271.794
-8.33063 166.322 -271.521
-7.23622 165.896 -271.322
-36.5473 164.442 -270.693
-22.009 165.347 -271.759
-21.264 165.939 -271.201
-9.14549 166.887 -271.267
-21.7944 165.814 -271.303
-76.1816 158.354 -270.434
-37.1958 163.479 -271.052
-21.542 165.536 -271.508
-8.23358 167.275 -270.504
-7.35711 166.79 -270.56
-36.8435 165.077 -270.017
-9.0974 167.645 -270.392
-37.38 165.181 -269.6
-37.9703 163.797 -270.274
-37.388 164.467 -270.201
-8.21728 168.094 -269.574
-7.38399 167.643 -269.669
-37.6104 165.721 -268.89
-9.06918 168.416 -269.474
-38.0774 164.708 -269.406
-8.231 168.862 -268.639
-7.42868 168.443 -268.727
-37.7923 166.413 -267.991
-9.02459 169.172 -268.543
-8.9172 169.769 -267.763
-38.3562 165.505 -268.33
-8.28507 169.561 -267.742
-7.51996 169.202 -267.728
-37.8546 167.078 -267.111
-8.4679 170.085 -267.109
-38.4628 166.25 -267.303
-7.73905 169.99 -266.626
-37.8297 167.517 -266.523
-8.45011 170.598 -266.243
-37.6683 167.979 -265.841
-24.2374 169.47 -265.771
-22.9555 169.538 -266.041
-21.7576 169.801 -266.249
-20.4727 170.172 -266.155
-19.3818 170.61 -265.803
-38.3463 167.057 -266.285
-7.80189 170.675 -265.405
-37.245 168.665 -264.948
-25.297 169.783 -265.786
-18.977 170.536 -265.029
-8.51801 171.305 -264.984
-26.7332 169.906 -264.725
-25.9627 169.845 -265.321
-18.1606 171.101 -264.86
-9.02092 171.941 -264.38
-37.882 168.114 -265.024
-7.88207 171.041 -264.728
-36.9995 169.009 -263.907
-27.6115 170.493 -264.775
-17.6242 171.075 -264.201
-9.54627 172.252 -264.345
-28.476 170.527 -263.978
-16.8 171.767 -264.177
-15.8618 172.299 -263.891
-37.7236 168.381 -264.332
-9.17474 172.265 -263.764
-36.4371 169.414 -263.301
-29.2543 170.954 -263.86
-15.2607 172.181 -263.274
-9.84196 172.539 -263.827
-35.9473 169.765 -263.362
-35.1528 170.042 -263.09
-33.8072 170.422 -263.293
-32.6339 170.536 -263.11
-31.6951 170.782 -263.32
-30.8261 170.983 -263.522
-29.9502 170.914 -263.519
-14.3222 172.557 -263.187
-13.2911 172.608 -262.899
-12.3888 172.75 -262.993
-11.233 172.785 -263.197
-10.1071 172.618 -263.208
-29.2409 170.615 -263.466
-9.44962 172.453 -263.315
-35.3734 169.921 -262.561
-39.2597 173.406 -259.05
-38.3218 173.32 -259.129
-37.1997 173.291 -259.104
-36.618 173.507 -258.942
-6.3037 176.797 -258.475
-40.3952 172.278 -259.221
-39.0199 172.57 -259.333
-37.6244 172.549 -259.377
-36.7071 172.582 -259.296
-9.70119 174.691 -258.677
-39.8878 173.78 -258.763
-36.1908 173.38 -258.852
-6.61753 177.269 -258.197
-5.42215 177.142 -258.451
-41.887 173.834 -258.249
-40.8796 173.8 -258.53
-36.7184 173.676 -258.277
-36.1711 173.444 -258.596
-7.22305 177.12 -257.943
-4.835 177.639 -258.236
-4.00408 177.973 -257.978
-42.6866 172.601 -258.46
-41.5492 172.942 -258.723
-40.1548 173.163 -258.998
-7.81526 176.449 -258.076
-7.1037 176.779 -258.292
-4.83243 177.032 -258.473
-42.5178 174.242 -257.843
-37.5455 174.012 -258.11
-7.16094 177.458 -257.554
-3.33677 178.149 -257.751
-43.2458 174.265 -257.542
-38.1536 174.144 -257.561
-6.72266 177.943 -257.354
-3.03481 178.544 -257.476
-43.5383 172.824 -257.939
-42.8145 173.531 -258.03
-2.80656 178.013 -257.524
-43.7247 174.631 -257.165
-38.9311 174.441 -257.417
-6.58262 178.182 -256.824
-2.30838 178.648 -256.953
-44.16 174.67 -256.928
-39.546 174.583 -256.775
-5.96921 178.827 -256.625
-1.92188 179.774 -256.356
-44.1051 173.889 -257.206
-44.6371 174.783 -256.551
-40.2858 174.964 -256.618
-5.57199 179.266 -255.965
-1.28797 180.126 -255.772
-45.2753 174.919 -255.974
-40.9043 175.261 -255.892
-4.93369 180.025 -255.566
-45.102 174.181 -256.376
-45.6481 175.584 -255.311
-41.8021 176.117 -255.797
-4.66505 180.152 -254.867
-0.862103 180.776 -255.092
-42.1421 176.54 -254.746
-4.12604 180.93 -254.737
-0.662614 181.431 -254.525
-0.400183 180.721 -254.593
-46.0168 176.586 -254.38
-42.6606 177.612 -254.443
-3.87977 181.197 -254.108
-0.260013 181.198 -254.047
-46.4228 177.254 -253.241
-42.8094 178.034 -253.523
-3.54886 182.038 -253.57
-0.205545 181.964 -253.291
-46.6003 177.725 -252.356
-42.9351 178.503 -252.577
-3.53187 182.967 -252.567
-0.259067 182.853 -252.37
-46.5019 178.468 -251.625
-42.9224 178.924 -251.625
-3.81448 183.464 -251.477
-0.250068 183.233 -251.442
-46.5104 178.911 -250.356
-42.7079 179.22 -250.706
-4.21034 183.82 -250.518
-0.538606 183.939 -250.709
-46.1726 179.736 -250.317
-42.3783 180.262 -250.429
-4.70253 184.079 -249.64
-0.827387 184.418 -249.707
-45.8705 180.311 -249.594
-41.6987 180.267 -249.603
-5.35681 185.09 -249.439
-1.32064 185.199 -249.885
-40.9695 181.047 -249.348
-40.125 181.732 -249.032
-5.99582 185.108 -248.655
-46.3063 179.519 -249.658
-45.273 181.148 -248.97
-39.2826 181.901 -248.574
-6.56647 185.814 -248.402
-1.87734 185.776 -249.02
-44.6117 181.824 -248.504
-38.9551 182.172 -248.198
-7.22814 185.552 -247.575
-2.50329 186.131 -248.098
-38.862 181.763 -248.279
-44.3608 181.749 -247.659
-38.7242 182.285 -247.434
-7.31334 186.102 -247.355
-3.47139 186.76 -247.968
-43.4276 182.354 -247.544
-42.6322 182.622 -247.291
-41.6313 182.803 -247.118
-39.3709 182.705 -247.141
-6.995 186.396 -247.03
-6.17253 186.599 -246.681
-5.00663 186.746 -246.716
-4.09058 186.763 -247.186
-38.229 181.847 -247.257
-7.6315 185.576 -247.001
-41.0146 182.678 -246.423
-39.9216 182.852 -246.883
-40.1616 182.607 -246.289
-41.7287 182.456 -246.295
-39.4807 182.614 -246.597
-6.2116 186.231 -245.885
-5.4395 186.4 -245.949
-19.3608 156.518 -280.462
-20.0098 157.08 -280.554
-18.5144 156.764 -280.374
-26.3823 156.45 -279.694
-25.638 156.734 -279.938
-24.4914 156.58 -280.149
-23.2017 156.793 -280.367
-22.0252 156.96 -280.494
-20.9259 157.093 -280.555
-17.8893 157.178 -280.223
-16.9984 157.585 -279.989
-16.3073 157.918 -279.817
-23.3875 155.926 -280.264
-22.286 156.129 -280.422
-21.1901 156.341 -280.517
-20.3426 156.566 -280.562
-17.8323 156.559 -280.164
-27.1518 156.953 -279.507
-15.4779 158.038 -279.459
-28.765 156.823 -278.719
-27.9466 156.952 -279.157
-14.5815 158.772 -279.124
-13.6682 159.042 -278.8
-29.4782 157.393 -278.439
-12.9075 158.878 -278.422
-30.1845 157.383 -277.997
-12.4283 159.421 -278.183
-30.8581 157.939 -277.655
-12.0287 159.982 -277.865
-31.583 157.897 -277.166
-11.3212 160.483 -277.273
-11.4632 159.838 -277.535
-32.1999 158.443 -276.788
-10.5284 160.783 -276.727
-32.9699 158.502 -276.184
-10.0129 161.112 -276.23
-10.1334 160.606 -276.485
-33.5046 159.42 -275.754
-9.55573 161.581 -275.727
-33.7365 158.809 -275.586
-9.04936 161.59 -275.262
-34.0123 160.058 -275.287
-9.4003 162.141 -275.334
-34.472 160.166 -274.96
-8.855 162.579 -274.642
-34.4119 159.505 -275.047
-8.91938 162.02 -274.991
-34.9382 160.307 -274.546
-8.31711 163.012 -274.034
-35.4216 160.469 -274.123
-7.8856 163.402 -273.474
-35.3833 159.784 -274.159
-7.94491 162.878 -273.769
-35.8534 160.644 -273.668
-7.4578 163.942 -272.909
-78.6778 156.989 -272.214
-36.4104 160.847 -273.066
-36.163 160.119 -273.356
-6.95126 164.004 -272.446
-78.5875 157.537 -272.217
-78.1647 157.175 -272.169
-36.8602 161.453 -272.401
-7.33515 164.509 -272.487
-77.854 157.884 -272.253
-6.88387 164.985 -271.789
-79.0776 156.845 -272.031
-6.8531 164.436 -272.155
-78.5732 157.682 -271.929
-77.4371 158.007 -271.778
-37.5363 162.275 -271.445
-6.50664 165.563 -271.089
-78.1673 157.978 -271.784
-77.6484 158.168 -271.682
-76.3339 158.281 -270.562
-79.0368 157.131 -271.796
-38.0187 161.692 -271.165
-5.93596 165.588 -270.505
34.5526 169.476 -269.805
-76.3847 158.249 -270.448
-76.1693 158.252 -270.424
-37.9317 163.096 -270.76
-6.54477 166.256 -270.522
-76.2143 158.184 -270.267
-38.2814 163.283 -270.346
-76.9631 158.026 -270.849
-38.3866 162.535 -270.517
-5.87819 166.379 -269.771
33.5117 169.992 -269.066
-38.6017 163.608 -269.701
-6.58602 167.075 -269.738
-74.3572 158.721 -269.154
-74.2984 158.762 -269.154
-39.0082 162.746 -269.644
-5.9157 167.218 -268.941
-38.8453 164.506 -268.647
-6.64408 167.892 -268.839
-39.2279 163.518 -268.84
-5.99792 168.008 -267.999
-39.0172 165.274 -267.573
-6.73512 168.662 -267.844
-39.4348 164.263 -267.847
-6.11445 168.731 -266.939
-39.0925 166.01 -266.364
-6.86864 169.387 -266.727
-39.5705 164.956 -266.78
-6.2449 169.363 -265.764
-38.8592 166.833 -265.358
-7.0088 170.081 -265.389
-38.316 167.551 -265.319
-24.1011 168.763 -264.802
-23.105 168.992 -265.175
-22.0582 169.254 -265.379
-20.9928 169.571 -265.382
-19.9276 169.994 -265.219
-6.35918 169.801 -264.751
-38.238 167.852 -264.576
-25.0726 169.312 -265.099
-19.3249 169.767 -264.418
-7.43992 170.753 -264.49
-26.7098 169.238 -264.003
-25.892 169.246 -264.545
-18.4284 170.398 -264.292
-7.93237 171.25 -264.09
-38.6446 167.343 -264.704
-38.1032 168.047 -263.961
-27.479 169.903 -264.051
-17.7145 170.274 -263.631
-8.55503 171.791 -263.747
-37.6354 168.448 -263.495
-29.0164 169.908 -263.156
-28.112 169.769 -263.507
-16.8905 170.983 -263.553
-16.0646 171.646 -263.424
-38.5336 167.577 -264.03
-8.01474 171.43 -263.285
-36.8526 168.924 -262.796
-29.7529 170.398 -263.111
-15.3106 171.502 -262.858
-8.98413 172.179 -263.228
-35.8141 169.565 -262.632
-34.3733 169.802 -262.398
-33.0491 169.983 -262.567
-31.8877 170.203 -262.728
-30.722 170.456 -262.997
-14.5554 171.923 -262.733
-13.584 172.111 -262.517
-12.4927 172.249 -262.358
-11.3588 172.379 -262.381
-10.2629 172.388 -262.527
-9.40926 172.289 -262.804
-35.3481 169.77 -262.328
-35.0831 169.97 -262.512
-35.2581 169.935 -262.387
-35.0578 169.819 -262.279
-40.8307 171.423 -259.333
-39.4683 171.392 -259.559
-38.0612 171.635 -259.586
-36.6725 171.613 -259.458
-9.7956 174.431 -258.691
-38.4116 170.716 -259.793
-37.3141 170.836 -259.729
-36.6081 170.851 -259.63
-8.30058 174.272 -258.957
-41.3473 172.069 -259.083
-36.0596 172.21 -259.2
-9.89202 174.652 -258.579