<VTKFile type="UnstructuredGrid" version="0.1" byte_order="BigEndian">
  <UnstructuredGrid>
    <Piece NumberOfPoints="12770" NumberOfCells="25528">
      <PointData>
        <DataArray type="Float64" Name="position" NumberOfComponents="3" format="ascii">
-48.5218 254.495 -335.075
-48.6403 255.337 -334.583
-48.8287 256.127 -334.059
-48.4398 256.171 -333.999
-48.5808 256.701 -333.657
-46.5276 250.829 -336.795
-13.9695 254.139 -336.41
-47.6773 252.304 -336.102
-12.4327 255.164 -335.793
-48.5245 253.802 -335.413
-48.1196 252.941 -335.772
-47.7708 252.645 -335.807
-11.3773 256.709 -335.024
-48.855 254.414 -335.024
-48.2211 253.877 -335.239
-10.784 257.895 -334.105
-49.1172 255.274 -334.376
-48.2636 254.803 -334.661
-48.3197 255.62 -334.284
-10.8586 258.188 -333.865
-49.2048 256.136 -333.591
-48.1494 256.045 -333.799
-48.8622 256.647 -333.678
-11.7099 259.353 -332.434
-48.7193 256.923 -333.496
-48.0742 256.703 -333.145
-48.5018 257.065 -333.141
-48.8744 256.876 -333.237
-48.0782 257.362 -332.36
-47.5628 257.546 -331.682
-46.6573 250.803 -336.752
-13.81 253.994 -336.411
-44.2895 249.398 -336.89
-43.8097 249.362 -336.861
-15.3475 253.082 -336.37
-14.6643 253.343 -336.44
-46.6804 250.952 -336.731
-46.4115 250.678 -336.74
-14.3162 253.874 -336.369
-13.646 254.228 -336.322
-47.4994 251.908 -336.317
-46.5238 250.858 -336.6
-13.9744 254.248 -336.218
-12.4601 254.915 -335.855
-47.1593 251.297 -336.421
-15.0538 253.543 -336.261
-13.2196 254.55 -335.999
-47.8297 252.126 -336.205
-47.3679 251.883 -336.181
-12.7443 255.066 -335.722
-12.1866 255.234 -335.705
-48.2632 252.497 -335.981
-12.3758 255.345 -335.63
-11.4006 256.342 -335.14
-48.2581 251.757 -336.096
-11.9402 255.729 -335.328
-48.7959 253.112 -335.495
-47.4881 252.266 -335.796
-11.6544 256.655 -334.821
-11.2038 256.744 -334.997
-47.7837 253.02 -335.216
-11.307 256.976 -334.84
-10.8513 257.661 -334.346
-49.175 252.067 -335.499
-10.9871 257.166 -334.622
-49.3604 254.19 -334.672
-48.0191 253.999 -334.775
-11.0308 257.929 -334.141
-10.6563 257.411 -334.225
-49.6084 253.059 -334.822
-11.3775 257.421 -334.361
-49.6167 255.066 -333.85
-47.9636 254.542 -334.123
-11.0378 258.318 -333.769
-10.5856 257.943 -333.606
-48.0635 255.402 -333.974
-11.6985 258.966 -332.734
-10.9037 258.454 -333.378
-49.9391 253.99 -334.002
-11.3856 258.363 -333.432
-49.7126 255.73 -332.933
-47.8506 255.957 -333.237
-11.9411 259.189 -332.247
-11.4534 259.275 -332.462
-11.7217 259.558 -332.108
-50.0993 254.774 -333.142
-11.06 258.878 -332.786
-49.1829 256.686 -332.555
-47.5142 256.479 -332.39
-48.6439 257.224 -332.6
-47.539 257.151 -332.105
-11.9273 259.659 -331.718
-48.372 257.498 -332.008
-47.105 257.399 -331.275
-47.9152 257.647 -331.531
-47.3296 257.681 -330.976
-48.7623 257.262 -332.021
-13.5064 260.867 -329.962
-47.1503 257.738 -330.285
-44.8135 249.228 -336.86
-43.8381 248.979 -336.994
-15.6235 252.489 -336.294
-14.8668 252.734 -336.398
-42.7067 248.629 -336.984
-41.9 248.504 -336.872
-41.4807 248.482 -336.717
-44.709 249.547 -336.782
-43.1315 249.126 -336.815
-15.8222 252.862 -336.203
-14.228 253.018 -336.406
-46.957 250.639 -336.628
-46.4107 250.388 -336.673
-44.2551 249.55 -336.583
-43.5252 249.393 -336.653
-15.5947 253.22 -336.174
-13.8291 253.513 -336.371
-13.139 253.979 -336.187
-46.9931 249.877 -336.486
-45.4682 249.786 -336.51
-13.6091 252.951 -336.262
-47.6603 250.802 -336.404
-46.1198 250.473 -336.45
-15.4023 253.446 -335.847
-12.4341 254.422 -335.922
-48.2783 250.986 -336.206
-46.4466 250.884 -335.952
-14.6056 253.977 -335.933
-13.9054 254.422 -335.832
-11.7858 254.925 -335.593
-48.3309 250.258 -336.131
-11.8894 254.293 -335.718
-48.8238 251.146 -335.896
-47.0674 251.615 -335.84
-13.3734 254.838 -335.396
-11.3002 255.703 -335.254
-49.4895 251.315 -335.408
-12.6234 255.416 -335.285
-11.0259 256.385 -334.982
-49.2869 250.536 -335.615
-10.8188 255.789 -334.955
-49.9015 252.002 -334.829
-47.2768 252.087 -335.153
-12.3039 256.061 -334.68
-10.5652 256.465 -334.5
-47.5046 252.632 -334.337
-50.2481 252.908 -334.011
-47.794 253.596 -334.261
-11.9578 257.118 -333.899
-10.2661 257.045 -333.768
-50.4297 253.787 -333.157
-47.7604 254.136 -333.366
-11.9861 258.174 -332.845
-10.1874 257.625 -333.027
-47.804 255.099 -333.323
-50.4748 254.541 -332.242
-47.5321 255.628 -332.46
-12.2046 258.609 -332.1
-10.5466 258.52 -332.481
-50.1172 255.32 -332.398
-11.0415 259.299 -331.968
-49.76 256.049 -331.788
-47.1411 256.134 -331.605
-12.3039 259.345 -331.461
-11.5513 259.77 -331.476
-47.0834 256.885 -331.546
-13.3867 260.556 -330.034
-12.0924 259.916 -331.107
-50.2601 255.293 -331.726
-11.0849 259.603 -331.325
-49.065 256.939 -331.422
-46.7381 257.126 -330.865
-13.5987 260.816 -329.887
-13.2473 260.782 -329.967
-48.4234 257.487 -331.357
-47.7933 257.697 -330.632
-13.59 260.932 -329.683
-12.7336 260.11 -330.462
-47.3821 257.728 -329.887
-46.6744 257.475 -330.31
-46.7735 257.626 -329.546
-47.8717 257.611 -329.893
-46.2784 257.471 -329.541
-13.8274 260.854 -329.167
-13.5974 261.024 -329.256
-42.7194 248.207 -337.108
-42.0185 248.1 -336.979
-41.457 248.242 -336.826
-42.7699 247.606 -337.055
-41.7714 247.529 -336.898
-43.4332 248.297 -337.097
-41.103 248.203 -336.62
-47.3009 248.638 -336.193
-45.8784 248.977 -336.637
-44.6662 248.375 -336.921
-42.0137 248.749 -336.475
-41.1695 248.386 -336.432
-16.0341 251.765 -336.139
-15.019 251.862 -336.245
-13.9423 252.357 -336.191
-43.8955 247.693 -337.058
-16.6157 250.942 -335.955
-15.6575 251.056 -336.177
-14.7778 251.076 -336.131
-47.9561 249.462 -336.178
-42.9399 249.202 -336.481
-16.1648 252.364 -335.984
-13.1001 252.574 -336.016
-48.5002 249.592 -336.014
-44.4785 249.577 -335.73
-43.4982 249.359 -336.177
-15.9433 252.912 -335.848
-12.8027 253.161 -335.997
-12.1421 253.78 -335.791
-48.6016 248.966 -335.798
-12.3611 252.482 -335.698
-49.0508 249.728 -335.737
-45.6068 250.166 -335.775
-15.7673 253.059 -335.273
-11.2563 254.052 -335.328
-49.7645 249.985 -335.282
-46.0453 250.495 -335.005
-15.0351 253.684 -335.256
-14.2324 254.287 -335.316
-10.9551 255.017 -335.128
-50.4707 248.885 -334.758
-49.6882 249.122 -335.26
-50.1044 250.865 -334.871
-46.7303 251.264 -335.1
-13.7959 254.607 -334.643
-10.3745 255.382 -334.59
-13.0387 255.305 -334.615
-50.5365 249.756 -334.655
-50.5617 251.811 -333.986
-47.0752 251.723 -334.266
-12.6653 255.986 -333.812
-9.98958 255.972 -333.914
-47.3734 252.217 -333.44
-50.9426 250.729 -333.92
-50.8031 252.75 -332.948
-47.6296 253.141 -333.416
-12.3916 256.856 -332.969
-9.74159 256.664 -333.01
-51.1515 251.629 -333.036
-9.35743 256.724 -332.065
-50.7451 253.658 -332.345
-47.6345 253.633 -332.358
-12.3464 257.658 -332.196
-9.89533 257.714 -332.072
-47.6102 254.683 -332.486
-9.47883 257.402 -331.348
-50.776 254.023 -331.649
-47.3008 255.139 -331.515
-12.4539 258.346 -331.523
-10.2142 258.479 -331.633
-47.5212 254.315 -331.744
-50.5402 254.761 -331.096
-46.8413 255.78 -330.712
-12.7397 259.011 -330.765
-10.6078 259.137 -331.14
-50.1153 255.606 -331.017
-46.7287 256.58 -330.87
-13.2798 259.684 -329.953
-11.1904 259.792 -330.684
-49.4791 256.356 -330.298
-46.4066 256.914 -330.222
-13.6947 260.53 -329.586
-11.9199 260.193 -330.256
-48.5396 257.295 -330.385
-46.1423 257.161 -329.635
-14.002 260.44 -328.835
-12.7533 260.675 -329.808
-46.4678 256.287 -330.171
-11.3096 259.96 -330.005
-48.1856 257.373 -329.498
-45.9982 257.274 -329.184
-13.9797 260.724 -328.596
-13.2753 260.973 -329.524
-47.4313 257.488 -329.035
-46.6552 257.44 -328.726
-46.2249 257.404 -328.979
-13.7095 260.912 -328.734
-13.3103 260.963 -328.954
-48.7474 256.979 -329.542
-12.9112 260.867 -329.241
-32.6241 239.582 -342.299
-31.7283 239.518 -342.214
-34.8367 240.245 -341.907
-33.6205 240.066 -342.027
-32.8653 240.191 -341.878
-32.1185 240.158 -341.71
-25.0248 241.004 -341.814
-24.2784 241.191 -341.842
-68.9287 237.333 -341.297
-68.206 237.428 -341.338
-67.6798 237.434 -341.321
-35.7278 240.738 -341.436
-34.8729 240.957 -341.348
-34.1562 240.74 -341.519
-33.1705 240.766 -341.269
-24.6749 241.566 -341.371
-23.7636 241.706 -341.454
-23.0735 242.12 -341.029
-69.3367 237.572 -340.983
-68.5445 237.755 -341.021
-67.5918 237.813 -340.922
-36.0747 241.213 -340.883
-35.3271 241.34 -340.865
-34.3259 241.312 -340.84
-24.0132 242.122 -340.768
-69.0462 237.991 -340.549
-68.0651 238.2 -340.471
-67.0287 238.301 -340.25
-42.8914 246.674 -336.869
-41.9328 246.961 -336.817
-43.7578 245.442 -336.586
-43.0136 245.818 -336.658
-43.578 247.133 -337.015
-41.3009 247.186 -336.711
-44.1136 247.178 -336.986
-41.0272 247.638 -336.576
-17.0897 250.014 -335.829
-16.1103 250.128 -336.108
-14.9932 250.385 -336.077
-44.1614 246.42 -336.764
-40.9003 247.066 -336.495
-17.5925 249.205 -335.692
-16.7658 249.35 -336.014
-16.0082 249.386 -336.138
-44.7346 247.387 -336.845
-40.6823 247.973 -336.221
-17.2297 250.627 -335.504
-14.1814 250.617 -335.94
-48.3777 247.888 -335.532
-47.2231 247.453 -335.909
-45.9807 247.789 -336.488
-41.6454 248.573 -335.619
-40.8555 248.195 -335.82
-16.963 251.159 -335.686
-13.8114 251.316 -335.918
-12.7092 251.853 -335.663
-46.461 246.813 -336.093
-45.4487 246.732 -336.495
-40.2044 247.728 -335.705
-13.4092 250.507 -335.652
-49.2083 248.398 -335.357
-42.5829 249.013 -335.954
-16.6232 251.662 -335.776
-11.8217 252.071 -335.351
-50.8344 248.349 -334.425
-49.9793 248.243 -334.901
-44.1574 249.193 -334.743
-43.228 249.042 -335.302
-16.4015 252.254 -335.27
-11.3829 252.767 -335.248
-49.2769 247.827 -335.105
-42.2672 248.761 -335.349
-17.0046 251.303 -335.276
-11.2896 251.97 -335.062
-51.1171 249.034 -334.297
-45.1414 249.702 -334.661
-16.0093 252.711 -334.838
-10.4527 253.385 -334.76
-45.8777 250.167 -334.208
-15.3937 253.13 -334.361
-14.5174 253.986 -334.579
-10.3546 254.333 -334.692
-51.4275 248.515 -334.049
-44.5765 249.228 -334.306
-16.1995 252.286 -334.355
-9.54641 253.557 -334.037
-8.7772 253.334 -333.391
-51.3917 249.771 -333.821
-46.4941 250.816 -334.081
-14.0672 254.305 -334.139
-9.74297 254.815 -334.008
-13.491 254.804 -333.643
-51.7455 249.006 -333.739
-46.1152 250.205 -333.553
-15.0834 252.991 -333.352
-14.4271 253.777 -333.637
-8.98318 254.358 -333.224
-51.6802 250.582 -332.852
-47.0028 251.378 -333.275
-12.8749 255.66 -332.855
-9.4146 255.489 -333.296
-47.3213 251.864 -332.658
-9.24956 255.988 -332.655
-52.0408 249.559 -333.145
-13.2792 254.761 -332.622
-8.95881 255.263 -332.693
-51.5356 251.611 -332.029
-47.5403 252.613 -332.559
-12.606 256.389 -331.99
-8.90109 255.849 -332.023
-51.2026 252.294 -332.255
-47.442 252.021 -331.845
-12.9435 255.179 -331.99
-51.046 253.132 -331.597
-47.5806 252.836 -331.587
-12.5167 257.353 -331.525
-9.01226 256.658 -331.136
-9.3483 257.496 -330.625
-51.3627 252.329 -331.54
-47.5157 252.222 -331.045
-50.8647 253.944 -330.894
-47.5293 253.665 -331.259
-12.6637 257.814 -330.847
-9.89411 258.271 -330.809
-47.3702 254.388 -331.063
-9.50161 257.911 -329.985
-50.6831 254.388 -329.955
-47.0451 254.851 -330.451
-12.9895 258.408 -330.075
-10.2936 258.955 -330.308
-50.2264 255.342 -330.135
-13.4372 258.855 -329.271
-49.8214 255.694 -329.175
-46.5164 255.457 -329.613
-13.7908 259.816 -329.102
-10.7676 259.487 -329.93
-46.1186 256.459 -329.406
-45.911 256.936 -329.086
-14.1488 259.852 -328.235
-11.4436 259.99 -329.221
-50.33 255.001 -329.3
-49.0837 256.426 -328.907
-45.9203 257.018 -328.645
-14.1535 260.344 -328.037
-12.3121 260.536 -329.238
-48.2094 257.045 -328.646
-47.5576 257.212 -328.24
-46.8927 257.148 -327.869
-46.22 257.105 -328.213
-13.8481 260.614 -328.024
-13.3397 260.726 -328.233
-12.7884 260.699 -328.613
-47.0279 256.952 -327.125
-38.0542 236.494 -343.299
-36.8178 236.444 -343.459
-35.7171 236.449 -343.527
-29.6167 237.412 -343.203
-28.3148 237.376 -343.235
-27.2423 237.419 -343.253
-32.8324 238.805 -342.731
-31.9309 238.845 -342.648
-39.0461 237.084 -342.834
-38.0078 237.426 -342.883
-37.1145 237.313 -343.064
-36.007 237.326 -343.165
-34.7453 237.255 -343.264
-33.5954 237.354 -343.27
-32.5214 237.881 -343.079
-30.9145 238.084 -342.918
-29.6449 238.389 -342.722
-28.6297 238.262 -342.806
-27.4956 238.243 -342.88
-26.2908 238.263 -342.957
-24.9363 238.661 -342.876
-23.6515 238.881 -342.814
-22.4151 239.019 -342.719
-21.2234 239.128 -342.607
-20.1249 239.211 -342.5
-19.3248 239.245 -342.43
-33.4271 239.258 -342.527
-31.1164 239.085 -342.403
-35.354 239.473 -342.312
-34.3748 239.339 -342.449
-25.5095 240.422 -342.047
-24.7231 240.514 -342.16
-39.5874 238.116 -342.128
-38.4069 238.118 -342.451
-37.3706 238.166 -342.641
-36.4535 238.084 -342.809
-35.304 238.441 -342.768
-33.8002 238.35 -342.899
-30.1498 239.105 -342.265
-28.9655 239.05 -342.293
-27.7725 239.086 -342.374
-26.7396 239.052 -342.539
-25.5487 239.57 -342.449
-24.11 239.909 -342.435
-22.8387 240.001 -342.343
-21.6184 240.11 -342.176
-20.4276 240.125 -342.045
-19.2971 240.078 -341.954
-35.779 240.004 -341.967
-30.9462 239.784 -341.764
-25.6926 240.801 -341.706
-23.9738 240.778 -342.113
-69.2464 237.022 -341.276
-68.5851 236.989 -341.383
-67.9738 237.206 -341.459
-36.4545 240.15 -341.714
-31.5048 240.306 -341.295
-25.3334 241.238 -341.479
-23.6306 241.263 -341.855
-23.0163 241.561 -341.588
-40.4657 238.61 -341.502
-39.5171 239.07 -341.518
-38.6072 239.005 -341.86
-37.6958 238.877 -342.192
-36.4959 239.157 -342.28
-30.1149 239.642 -341.763
-29.4016 239.61 -341.75
-28.1948 239.795 -341.661
-26.5974 240.055 -341.898
-23.2582 240.817 -342.045
-22.162 241.146 -341.696
-20.8577 241.112 -341.505
-19.6887 241.001 -341.412
-18.7304 240.906 -341.324
-69.4819 237.231 -341.161
-67.6117 237.232 -341.364
-36.6983 240.729 -341.148
-32.104 240.665 -340.913
-25.2757 241.472 -341.206
-22.3737 241.94 -341.197
-32.8029 241.083 -340.604
-25.0715 241.764 -340.726
-22.3422 242.368 -340.706
-68.7887 236.643 -341.155
-39.9769 239.603 -340.848
-38.754 239.837 -341.133
-37.5053 239.835 -341.584
-31.4683 240.473 -340.888
-27.288 240.444 -341.058
-26.0032 241.064 -341.089
-21.3958 242.133 -340.787
-20.0749 241.882 -340.77
-19.0043 241.659 -340.747
12.3303 244.547 -339.737
-69.8201 237.32 -340.864
-67.2108 237.447 -341.01
-36.6489 241.231 -340.547
-33.4961 241.373 -340.339
-24.5405 242.173 -340.261
-23.0136 242.531 -340.231
-69.8637 237.671 -340.455
-66.5961 237.851 -340.4
-35.9227 241.551 -340.321
-35.0321 241.684 -340.233
-34.2954 241.67 -340.129
-23.923 242.406 -340.054
-70.2395 237.165 -340.391
-66.7588 237.474 -340.619
-40.1017 240.211 -340.044
-39.0436 240.448 -340.28
-37.6824 240.738 -340.583
-32.9332 241.255 -340.197
-25.0706 241.959 -340.066
-21.9157 242.669 -340.134
-21.2179 242.68 -340.102
-20.4026 242.628 -339.98
-19.3016 242.353 -340.074
-69.5241 238.058 -340.069
-66.1695 238.303 -339.889
-68.663 238.369 -339.841
-67.4901 238.573 -339.779
-66.43 238.619 -339.593
-70.0552 237.855 -339.902
-65.6014 238.48 -339.404
-39.3875 240.779 -339.435
-38.1788 241.085 -339.549
-36.8048 241.444 -339.734
-35.6325 241.755 -339.603
-34.7399 241.812 -339.591
-22.3395 242.81 -339.417
-21.194 242.909 -339.439
-43.9349 244.62 -336.345
-43.0199 245 -336.44
-44.5607 245.396 -336.476
-42.3266 245.357 -336.445
-41.9187 246.055 -336.528
-41.1381 246.624 -336.462
-17.8283 248.606 -335.553
-17.165 248.526 -335.817
-16.2249 248.76 -336.045
-44.7965 244.728 -336.252
-41.6253 245.285 -336.212
-16.368 247.977 -335.86
-15.28 248.24 -335.917
-14.1496 248.181 -335.722
-45.1474 245.953 -336.443
-40.4011 246.724 -336.028
-18.0245 248.907 -335.428
-15.4954 249.001 -336.084
-46.7519 246.204 -335.754
-46.0173 245.946 -336.076
-40.1769 247.349 -335.872
-17.9589 249.23 -335.426
-15.2011 249.604 -336.063
-13.7862 249.665 -335.671
-45.3646 245.241 -336.194
-14.6153 248.925 -335.907
-13.7307 248.733 -335.635
-47.1646 246.664 -335.676
-39.7525 247.264 -335.333
-17.721 249.734 -335.282
-12.7623 250.051 -335.28
-48.9775 247.089 -334.848
-47.9221 246.854 -335.309
-40.7279 247.93 -334.869
-39.994 247.576 -335.126
-12.459 250.777 -335.268
-11.4351 251.359 -334.935
-11.9787 249.998 -334.852
-49.7272 247.558 -334.74
-41.6408 248.399 -334.992
-17.4339 250.488 -334.65
-10.6142 251.784 -334.619
-51.3111 247.842 -333.858
-50.4277 247.662 -334.381
-43.3076 248.591 -334.187
-42.3278 248.495 -334.682
-16.8313 251.481 -334.492
-9.89398 252.423 -334.284
-8.90638 252.613 -333.591
-9.72944 251.52 -334.023
-51.8473 248.405 -333.64
-44.1738 248.92 -334.073
-16.4315 251.629 -333.586
-8.36803 252.849 -333.105
-44.7907 249.097 -333.644
-15.7425 252.384 -333.496
-7.8685 252.815 -332.543
-52.2912 248.797 -333.127
-45.5658 249.689 -333.617
-15.2068 252.455 -332.64
-8.30983 253.583 -332.76
-46.0228 249.87 -332.805
-14.5201 253.189 -332.659
-13.8277 254.009 -332.714
-52.6366 248.386 -332.699
-7.73797 253.659 -331.942
-52.4214 249.317 -332.771
-46.5536 250.589 -332.984
-13.3734 254.239 -331.903
-8.3882 254.759 -332.053
-52.3742 249.881 -332.243
-52.7207 249.014 -332.351
-7.75629 254.438 -331.3
-52.0556 250.879 -331.479
-47.0492 251.159 -332.141
-12.9972 254.62 -331.208
-8.58143 255.761 -331.345
-12.7411 255.546 -331.343
-52.5201 250.211 -331.318
-51.6332 251.914 -330.867
-47.3172 251.492 -331.101
-12.6345 256.467 -330.917
-8.59013 256.217 -330.58
-51.319 252.663 -330.879
-47.4288 251.905 -330.263
-51.0801 253.334 -330.153
-47.4781 252.883 -330.468
-12.7755 257.14 -330.076
-8.9751 257.09 -329.877
-47.2943 253.908 -330.349
-9.40997 257.867 -329.279
-51.4009 252.552 -330.218
-50.8534 253.851 -329.406
-46.8915 254.315 -329.469
-13.0858 257.702 -329.308
-10.0264 258.643 -329.445
-13.5 258.108 -328.516
-9.63487 258.136 -328.593
-50.5233 254.301 -328.757
-46.4133 254.655 -328.546
-13.8858 259.089 -328.427
-10.7084 259.353 -328.902
-50.0588 255.091 -328.555
-46.0596 255.641 -328.566
-45.8612 256.445 -328.543
-14.2577 259.18 -327.555
-11.2031 259.573 -328.098
-49.3252 255.632 -327.951
-45.8841 256.535 -327.878
-14.3904 259.774 -327.251
-12.0489 260.225 -328.336
-48.5517 256.438 -327.928
-47.6713 256.824 -327.477
-46.1947 256.641 -327.244
-14.094 260.142 -327.137
-13.4344 260.299 -327.346
-12.7165 260.325 -327.736
-47.2224 256.773 -326.788
-46.6189 256.875 -327.043
-46.7963 256.745 -326.614
-47.5485 256.495 -326.665
-14.4427 259.832 -326.64
-30.0968 271.492 -315.217
-30.1731 272.218 -314.823
-30.4484 272.772 -314.391
-30.0643 272.95 -314.241
-32.1218 226.983 -350.197
-30.9171 227.004 -350.321
-29.7608 227.081 -350.376
-28.5831 227.188 -350.392
-27.385 227.318 -350.383
-26.1798 227.459 -350.356
-24.9781 227.603 -350.314
-23.7981 227.741 -350.257
-22.708 227.854 -350.192
-34.3263 227.498 -349.522
-33.1421 227.495 -349.752
-32.1119 227.901 -349.662
-31.1877 227.867 -349.78
-30.0613 227.936 -349.833
-28.8926 228.047 -349.849
-27.7065 228.179 -349.842
-26.5131 228.321 -349.824
-25.3176 228.466 -349.796
-24.1239 228.604 -349.759
-22.9347 228.719 -349.716
-21.6949 228.757 -349.677
-20.4756 229.099 -349.423
-34.9566 228.516 -348.791
-33.6563 228.476 -349.045
-32.4975 228.58 -349.137
-31.4017 228.715 -349.164
-30.288 228.81 -349.191
-29.122 228.927 -349.197
-27.9354 229.061 -349.19
-26.7438 229.204 -349.177
-25.5516 229.352 -349.159
-24.3579 229.499 -349.135
-23.1596 229.638 -349.104
-21.9489 229.759 -349.057
-20.7387 229.902 -348.96
-19.5672 230 -348.835
-36.0911 229.317 -348.071
-34.8941 229.579 -348.096
-33.9358 229.448 -348.314
-32.7896 229.467 -348.432
-31.6366 229.564 -348.47
-30.4795 229.689 -348.469
-29.2996 229.822 -348.457
-28.102 229.961 -348.446
-26.9026 230.104 -348.439
-25.7081 230.252 -348.431
-24.5165 230.404 -348.421
-23.3226 230.556 -348.403
-22.1234 230.7 -348.373
-20.9257 230.829 -348.32
-19.7535 230.923 -348.24
-18.6283 230.965 -348.126
-37.2108 230.087 -347.317
-36.0658 230.399 -347.321
-35.1499 230.338 -347.492
-34.0769 230.37 -347.589
-32.9682 230.386 -347.675
-31.8192 230.45 -347.712
-30.6542 230.568 -347.697
-29.4587 230.724 -347.655
-28.2387 230.876 -347.631
-27.0204 231.016 -347.633
-25.8158 231.159 -347.64
-24.6221 231.31 -347.645
-23.4321 231.469 -347.643
-22.2408 231.626 -347.63
-21.0499 231.766 -347.6
-19.8762 231.861 -347.553
-18.7681 231.871 -347.497
-17.8302 231.79 -347.432
-38.2363 230.741 -346.604
-37.2227 231.141 -346.578
-36.3289 231.129 -346.732
-35.2827 231.206 -346.803
-34.2038 231.25 -346.867
-33.0759 231.297 -346.91
-31.9308 231.345 -346.934
-30.8046 231.417 -346.931
-29.6382 231.604 -346.837
-28.3862 231.815 -346.758
-27.1279 231.945 -346.781
-25.9027 232.074 -346.813
-24.7005 232.217 -346.838
-23.5096 232.374 -346.852
-22.3218 232.54 -346.855
-21.1335 232.697 -346.841
-19.9484 232.814 -346.809
-18.7846 232.841 -346.765
-17.7483 232.679 -346.76
-38.7362 231.746 -345.808
-37.5942 231.853 -345.996
-36.5038 231.979 -346.073
-35.4194 232.058 -346.126
-34.3022 232.136 -346.151
-33.1587 232.201 -346.164
-31.9935 232.253 -346.167
-30.8496 232.279 -346.174
-29.9023 232.265 -346.218
-28.6234 232.849 -345.774
-27.2507 232.906 -345.898
-25.9917 232.999 -345.98
-24.7761 233.123 -346.033
-23.5792 233.273 -346.064
-22.3891 233.442 -346.079
-21.1998 233.616 -346.076
-20.0088 233.765 -346.052
-18.8106 233.848 -346.001
-17.5484 233.81 -345.907
-39.2135 232.774 -345.061
-37.9278 232.767 -345.32
-36.7216 232.845 -345.428
-35.5525 232.938 -345.466
-34.4003 233.023 -345.475
-33.2475 233.1 -345.469
-32.0755 233.168 -345.452
-30.8596 233.212 -345.429
-29.6303 233.173 -345.441
-27.3591 233.909 -345.025
-26.0876 233.942 -345.184
-24.8665 234.032 -345.269
-23.664 234.167 -345.315
-22.4674 234.335 -345.335
-21.2705 234.523 -345.334
-20.0731 234.701 -345.312
-18.8769 234.833 -345.263
-17.6868 234.878 -345.175
-16.6388 234.815 -345.046
-40.1769 233.371 -344.47
-39.2129 233.746 -344.511
-38.2186 233.718 -344.693
-36.9587 233.774 -344.804
-35.7067 233.854 -344.846
-34.5145 233.921 -344.861
-33.3543 233.995 -344.853
-32.2181 234.051 -344.84
-31.0298 234.152 -344.787
-29.6568 234.217 -344.712
-27.3504 234.961 -344.323
-26.1704 234.902 -344.491
-24.9786 234.949 -344.589
-23.7816 235.06 -344.64
-22.5808 235.22 -344.657
-21.3722 235.421 -344.643
-20.1572 235.631 -344.605
-18.9481 235.802 -344.549
-17.7478 235.896 -344.464
-16.5129 235.885 -344.322
-38.6498 235.614 -343.628
-37.6469 235.567 -343.778
-36.4584 235.616 -343.847
-30.1354 236.405 -343.636
-29.0775 236.395 -343.64
-27.8807 236.544 -343.587
-40.6878 234.352 -343.791
-39.7223 234.275 -344.111
-38.6529 234.679 -344.096
-37.295 234.685 -344.252
-35.8864 234.876 -344.245
-34.6558 234.828 -344.321
-33.4993 234.891 -344.323
-32.3503 234.944 -344.317
-31.37 234.887 -344.354
-30.1233 235.329 -344.13
-28.5 235.31 -344.112
-27.2003 236.017 -343.824
-26.2275 235.855 -343.953
-25.1167 235.866 -344.031
-23.9435 235.958 -344.068
-22.7471 236.103 -344.071
-21.537 236.303 -344.038
-20.2965 236.563 -343.956
-19.0502 236.785 -343.86
-17.8433 236.9 -343.771
-16.6769 236.929 -343.651
-15.6703 236.859 -343.513
-39.0835 236.14 -343.3
-35.5188 235.78 -343.813
-30.7186 236.952 -343.409
-27.0154 236.794 -343.505
-39.8131 236.299 -343.054
-34.9295 236.332 -343.603
-34.0884 236.52 -343.562
-33.0106 236.724 -343.51
-31.7992 236.913 -343.437
-26.489 237.341 -343.313
-25.624 237.573 -343.261
-24.4762 237.766 -343.226
-23.2692 237.922 -343.179
-22.0652 238.067 -343.109
-20.8965 238.232 -343.013
-19.8142 238.462 -342.869
-41.4909 234.958 -343.161
-40.7237 235.141 -343.38
-39.7864 235.296 -343.559
-34.7647 235.679 -343.889
-33.7269 235.756 -343.89
-32.5718 235.866 -343.867
-31.2643 235.909 -343.857
-26.3015 236.709 -343.568
-25.306 236.758 -343.598
-24.1642 236.863 -343.605
-22.9735 236.998 -343.585
-21.7738 237.172 -343.535
-20.5629 237.42 -343.431
-19.2155 237.864 -343.176
-17.9587 237.932 -343.078
-16.7963 237.945 -342.956
-15.6177 237.884 -342.783
-40.2259 237.051 -342.536
-18.9703 238.849 -342.612
-41.9634 235.979 -342.38
-40.7958 235.969 -342.909
-18.0672 239.056 -342.373
-16.9622 238.959 -342.258
-15.9063 238.88 -342.091
-14.9498 238.765 -341.89
-40.5941 237.771 -342.015
-18.6278 239.623 -342.14
-41.1629 237.946 -341.66
-18.4768 240.323 -341.693
-42.649 236.49 -341.618
-42.0251 236.827 -341.879
-41.2969 237.051 -342.122
-17.9055 240.129 -341.67
-17.1167 239.948 -341.569
-16.1644 239.822 -341.375
-15.1879 239.639 -341.166
-41.2397 238.471 -341.238
-18.0717 240.766 -341.277
-69.2412 236.731 -341.136
-67.9363 236.992 -341.357
-40.8492 239.072 -340.946
-29.9671 240 -341.13
-28.9919 239.977 -341.206
-28.2736 240.222 -340.865
12.2244 244.371 -339.721
-42.879 237.357 -340.788
-41.9488 237.705 -341.306
-17.3609 240.911 -340.858
-16.5072 240.613 -340.781
-15.5576 240.629 -340.296
13.3441 243.989 -339.634
-69.7769 236.924 -340.891
-69.165 236.473 -340.844
-68.3261 236.746 -341.212
-67.4889 237.106 -341.16
-40.8138 239.61 -340.372
-30.9438 240.25 -340.995
-27.6969 240.484 -340.415
-18.1337 241.388 -340.746
12.0574 244.586 -339.594
12.6963 244.354 -339.728
-70.2576 236.575 -340.095
-68.5465 236.476 -340.727
-67.0989 237.095 -340.641
-31.3621 240.498 -340.21
-26.8482 240.855 -340.292
-25.8109 241.473 -340.095
12.4792 244.609 -339.462
-69.6363 236.543 -340.692
-67.8186 236.798 -340.958
-42.3594 238.428 -340.305
-41.4966 238.852 -340.669
-30.4472 240.238 -340.488
-28.2899 240.326 -340.246
-17.5621 241.708 -340.123
-16.5425 241.524 -339.752
11.8273 244.446 -339.507
13.1454 244.358 -339.487
-70.6914 236.969 -339.684
-66.3413 237.39 -340.103
-40.7373 240.016 -339.889
-32.404 240.98 -340.167
-25.2603 241.806 -339.584
-18.3456 242.074 -340.061
-70.4256 237.482 -339.934
-65.396 237.878 -339.453
-40.4254 240.418 -339.347
-33.1136 241.252 -339.609
-24.4984 242.178 -339.554
-23.4249 242.56 -339.331
-19.4893 242.828 -339.362
-18.6674 242.574 -339.463
-66.7041 236.906 -339.955
-41.4411 239.585 -339.732
-25.7177 241.437 -339.332
-17.6181 242.357 -339.161
-70.349 237.706 -339.493
-64.5769 238.438 -338.835
-39.7241 240.887 -338.797
-33.9666 241.637 -339.606
-22.6809 242.734 -338.764
-20.256 242.981 -339.233
-69.633 238.095 -339.312
-68.687 238.473 -339.097
-67.9395 238.64 -339.239
-66.8395 238.767 -338.934
-65.6244 238.739 -338.939
-38.6966 241.167 -338.53
-37.36 241.414 -338.691
-36.1723 241.628 -338.829
-35.1758 241.738 -338.933
-34.4474 241.709 -339.078
-21.6713 242.878 -338.53
-20.5146 243.035 -338.612
-70.6873 237.325 -339.364
-63.5129 238.295 -338.481
-62.9316 238.351 -338.221
-40.3168 240.714 -338.633
-23.2521 242.483 -338.539
-19.6933 243.03 -338.754
-18.7029 242.869 -338.647
-17.7426 242.793 -338.236
-66.7416 238.758 -338.118
-65.7729 238.824 -338.246
-44.5801 244.019 -336.102
-43.7431 243.705 -336.116
-42.934 244.165 -336.174
-42.1401 244.704 -336.186
-16.6183 247.203 -335.612
-15.5675 247.299 -335.717
-14.4479 247.443 -335.657
-44.3324 243.237 -335.967
-43.6747 243.07 -335.994
-45.3617 244.407 -335.952
-41.2138 244.695 -335.854
-17.1325 247.787 -335.671
-13.6651 247.588 -335.525
-40.7196 245.681 -335.912
-17.7851 247.938 -335.386
-13.2404 248.043 -335.403
-13.229 247.461 -335.364
-46.0639 245.005 -335.759
-39.8848 246.037 -335.487
-18.1639 248.418 -335.103
-12.9238 248.729 -335.258
-46.6245 245.596 -335.609
-39.5343 246.501 -335.184
-18.1301 249.038 -335.036
-12.2076 249.209 -334.847
-46.7917 244.833 -335.152
-39.4764 245.848 -335.106
-12.2652 248.527 -334.864
-47.3357 245.921 -335.239
-39.3577 246.908 -334.714
-17.9865 249.447 -334.424
-11.4085 249.598 -334.408
-49.2273 246.428 -334.241
-48.3359 246.051 -334.564
-40.3779 247.322 -333.86
-39.5953 247.077 -334.221
-11.1381 250.284 -334.415
-10.1563 250.878 -334.046
-47.5991 245.137 -334.562
-38.9762 246.546 -334.107
-10.7422 249.532 -333.921
-49.8441 247.015 -334.316
-41.3827 247.959 -334.289
-17.6323 249.905 -333.645
-9.29175 251.063 -333.593
-51.4757 247.095 -333.211
-50.6506 247.041 -333.809
-43.0399 247.915 -333.161
-42.2069 247.966 -333.79
-17.0612 250.798 -333.671
-8.91838 251.684 -333.488
-8.23466 252.191 -332.998
-8.71014 250.978 -333.115
-52.1387 247.916 -333.126
-43.9724 248.484 -333.369
-16.5372 250.993 -332.776
-7.65108 252.128 -332.386
-52.7098 247.831 -332.395
-44.6271 248.537 -332.612
-15.8878 251.746 -332.708
-52.9271 248.393 -332.192
-45.3752 249.201 -332.735
-15.2814 251.85 -331.874
-7.23417 252.74 -331.759
-45.9058 249.449 -331.898
-14.6064 252.582 -331.836
-13.9452 253.38 -331.854
-6.70742 252.919 -331.031
-53.0718 248.752 -331.563
-46.5033 250.233 -332.003
-13.4339 253.662 -331.084
-7.13781 253.757 -330.929
-52.8181 249.534 -331.487
-7.56191 254.701 -330.56
-6.65861 253.33 -330.637
-52.7528 250.038 -330.523
-46.9156 250.646 -331.12
-13.0228 254.114 -330.379
-8.12169 255.349 -330.793
-52.3962 250.624 -330.725
-12.7511 255.193 -330.585
-7.77522 255.361 -329.827
-52.0599 251.226 -330.167
-47.1894 251.051 -330.231
-12.6856 255.881 -329.943
-8.3563 256.198 -329.684
-47.2994 251.454 -329.376
-52.4535 250.641 -330.072
-8.00399 255.899 -329.079
-51.613 252.05 -329.707
-47.3532 252.342 -329.408
-12.8233 256.511 -329.238
-8.69602 256.823 -329.153
-51.2981 252.73 -329.501
-47.1987 253.301 -329.432
-50.954 253.292 -328.817
-46.792 253.649 -328.497
-13.124 257.028 -328.517
-9.07805 257.385 -328.66
-13.519 257.373 -327.751
-9.57038 257.871 -327.756
-50.4387 253.654 -327.702
-46.3469 253.921 -327.597
-13.933 258.343 -327.678
-10.2936 258.73 -328.054
-49.9396 254.612 -327.714
-46.0125 254.871 -327.645
-45.8225 255.771 -327.723
-14.3071 258.461 -326.827
-11.0337 259 -327.072
-49.1428 254.869 -326.795
-45.8336 255.894 -327.005
-14.493 259.143 -326.801
-11.9098 259.737 -327.333
-48.2201 255.905 -326.799
-46.0274 255.974 -326.383
-13.6469 259.713 -326.33
-12.731 259.78 -326.759
-47.4861 256.145 -326.227
-46.3753 256.519 -326.53
-14.5715 259.364 -326.308
-14.2509 259.837 -326.401
-47.0591 256.465 -326.267
-46.615 256.445 -326.196
-14.482 259.639 -326.178
-47.0985 256.044 -325.891
-30.2239 270.904 -315.41
-30.15 270.257 -315.533
-30.4263 271.387 -315.153
-29.9208 270.829 -315.34
-30.6537 272.065 -314.698
-29.7586 271.718 -314.943
-29.8009 272.474 -314.577
-29.5364 272.198 -314.528
-30.8002 272.686 -314.201
-29.5819 272.754 -314.011
-30.5328 273.422 -313.647
-29.9271 273.369 -313.619
-31.1427 273.732 -312.893
-30.6116 274.139 -312.814
-30.0799 273.901 -312.926
-31.3829 274.151 -312.139
-30.9131 274.462 -312.221
-30.3367 274.47 -312.205
-30.9652 224.575 -351.037
-29.5826 224.529 -351.153
-28.2342 224.559 -351.189
-26.8816 224.718 -351.172
-25.5967 224.926 -351.105