<VTKFile type="UnstructuredGrid" version="0.1" byte_order="BigEndian">
  <UnstructuredGrid>
    <Piece NumberOfPoints="13762" NumberOfCells="27524">
      <PointData>
        <DataArray type="Float64" Name="position" NumberOfComponents="3" format="ascii">
-46.7038 233.417 -308.078
-7.6047 237.538 -307.725
-47.023 233.893 -307.684
-7.70237 237.951 -307.414
-47.3263 234.287 -307.289
-8.93566 239.783 -305.789
-9.15377 239.915 -305.587
-46.4101 236.867 -304.928
-45.281 231.441 -308.914
-44.8318 231.38 -308.775
-7.95172 235.353 -308.775
-7.53407 235.601 -308.688
-46.5563 232.877 -308.346
-7.7633 237.04 -308.008
-45.9555 232.143 -308.614
-45.2737 231.871 -308.629
-7.75238 236.202 -308.371
-47.0276 233.219 -308.062
-46.2406 233.064 -308.196
-7.90567 237.535 -307.698
-7.38774 237 -307.909
-47.487 233.745 -307.537
-46.5328 233.761 -307.742
-8.01037 238.125 -307.184
-7.35365 237.825 -307.202
-8.78762 239.306 -306.031
-7.72947 238.366 -306.893
-47.8156 233.325 -307.374
-47.5865 234.255 -307.164
-46.8382 234.524 -307
-9.06839 239.605 -305.808
-8.68068 239.654 -305.796
-47.4728 234.634 -306.756
-47.8563 234.045 -306.84
-8.22637 238.932 -306.267
-9.30423 239.674 -305.528
-8.97396 240.005 -305.417
-46.5076 236.662 -305.066
-9.44114 240.072 -305.093
-47.1347 235.411 -305.939
-46.5135 236.04 -305.418
-46.5826 236.839 -304.978
-46.0377 236.632 -304.732
-46.4322 236.975 -304.689
-46.8821 236.495 -304.979
-10.5219 240.272 -304.304
-10.0858 240.214 -304.505
-9.67124 240.399 -304.467
-45.8962 237.384 -303.933
-44.8734 237.648 -303.348
-45.2964 237.867 -303.09
-44.3989 238.004 -302.759
-45.2166 230.889 -309.038
-44.8534 231.009 -308.979
-8.05978 234.679 -308.914
-7.64613 235.054 -308.878
-43.0899 229.274 -309.019
-8.83826 233.522 -308.919
-8.21832 233.961 -308.975
-45.6922 231.335 -308.924
-44.4687 230.908 -308.781
-8.3048 234.978 -308.796
-7.28647 235.238 -308.712
-46.2757 231.49 -308.716
-44.5029 231.27 -308.558
-8.38057 235.481 -308.451
-8.7646 234.339 -308.692
-46.74 232.343 -308.397
-44.8428 231.77 -308.3
-8.22434 236.655 -307.927
-7.06889 236.03 -308.236
-45.576 232.576 -308.142
-44.4432 231.365 -308.276
-8.64273 235.784 -307.958
-6.47971 236.232 -307.557
-47.4291 232.725 -307.904
-46.0519 233.365 -307.82
-8.20165 237.536 -307.476
-6.90041 237.028 -307.424
-47.8951 232.684 -307.455
-47.685 232.045 -307.76
-45.6737 233.261 -307.419
-6.42242 236.981 -306.731
-48.1411 233.155 -306.843
-46.2158 233.954 -307.288
-8.3802 238.018 -306.95
-6.86639 237.781 -306.493
-8.69403 238.46 -306.378
-45.8453 233.972 -306.716
-8.67582 237.652 -306.759
-6.45161 237.571 -305.945
-48.3026 233.92 -305.861
-46.2925 234.519 -306.711
-9.13488 238.951 -305.8
-7.45542 238.61 -306.08
-47.8201 234.816 -305.969
-46.4723 235.165 -306.144
-7.92022 239.344 -305.413
-46.022 234.677 -306.174
-47.689 235.658 -304.948
-45.9102 235.397 -305.337
-9.66622 239.435 -305.068
-8.49987 239.815 -305.199
-10.6706 240.128 -304.082
-10.2636 239.751 -304.427
-48.1733 234.814 -305.188
-8.0568 239.744 -304.659
-47.2787 236.601 -304.12
-45.3107 236.029 -304.194
-10.7084 240.393 -304.17
-9.10914 240.246 -304.719
-46.6529 237.109 -304.239
-45.23 237.046 -303.884
-10.5868 240.421 -304.086
-10.1679 240.528 -303.763
-9.42783 240.471 -304.052
-10.7821 240.374 -304.005
-46.4153 237.441 -303.812
-44.5796 237.34 -303.333
-46.1776 237.679 -303.289
-44.0644 237.752 -302.859
-46.8154 237.265 -303.605
-44.7749 236.772 -303.525
-11.3089 240.358 -302.71
-10.7278 240.566 -302.923
-45.6849 237.936 -302.709
-43.7747 238.074 -302.538
-44.8489 238.053 -302.285
-43.9169 238.14 -302.248
-46.2263 237.806 -302.694
-43.4804 238.129 -302.273
-43.3252 229.129 -309.018
-8.96309 232.947 -308.935
-8.32264 233.261 -308.999
-11.1831 231.696 -308.943
-10.3073 232.137 -308.917
-43.2567 229.383 -308.989
-42.9442 229.084 -308.954
-9.75269 233.077 -308.607
-7.80804 233.631 -308.986
-45.189 230.432 -309.022
-44.6487 230.434 -308.956
-43.0459 229.33 -308.839
-7.40183 234.328 -308.825
-45.2006 229.727 -308.866
-43.7743 229.649 -308.806
-10.9275 232.236 -308.625
-7.41917 233.585 -308.87
-45.7701 230.707 -308.909
-44.0873 230.426 -308.653
-9.41047 234.03 -308.174
-6.843 235.098 -308.469
-46.3953 230.947 -308.691
-8.94977 234.929 -308.097
-6.54515 235.585 -308.078
-46.4455 230.184 -308.561
-6.36893 235.021 -308.12
-47.032 231.438 -308.289
-44.1679 230.921 -308.298
-8.98733 235.511 -307.419
-6.13474 235.465 -307.615
-47.6944 231.294 -307.746
-44.4499 231.494 -307.703
-8.63857 236.293 -307.599
-47.3426 230.442 -308.023
-48.1436 231.987 -307.112
-45.0777 232.396 -307.55
-8.52935 237.093 -307.288
-6.01636 236.121 -306.839
-8.81524 236.945 -306.791
-8.80965 236.366 -307.143
-48.522 232.71 -306.114
-45.3128 233.11 -306.701
-9.00269 237.581 -306.152
-6.02542 236.881 -305.812
-6.30446 237.657 -305.231
-48.6818 233.33 -305.263
-45.5391 234.055 -305.773
-9.4114 238.175 -305.278
-6.801 238.281 -305.285
-6.42246 238.027 -304.535
-48.5846 234.238 -304.526
-45.3907 234.745 -304.668
-9.90066 238.721 -304.523
-7.47215 239.201 -304.701
-48.2224 235.165 -304.458
-10.5009 239.272 -303.814
-7.90182 239.77 -304.041
-47.9724 235.838 -303.706
-45.1191 235.166 -303.833
-10.8898 240.18 -303.484
-8.60417 240.16 -303.864
-11.6313 239.883 -302.579
-9.52062 240.558 -303.322
-48.4334 235.032 -303.792
-7.99094 239.882 -303.497
-47.3642 236.812 -303.019
-44.7004 235.996 -303.187
-11.7207 240.251 -302.267
-10.1279 240.674 -303.001
-46.7317 237.496 -302.922
-44.1754 237.09 -302.884
-43.6778 237.608 -302.525
-43.5049 237.95 -302.419
-11.2181 240.474 -302.091
-10.354 240.636 -302.309
-12.0643 239.962 -302.035
-9.73539 240.625 -302.609
-46.5242 237.66 -302.377
-43.3042 238.018 -302.122
-45.8376 237.868 -302.047
-44.9911 237.962 -301.413
-44.056 238.021 -301.578
-43.4746 238.078 -301.931
-46.9721 237.312 -302.398
-45.0577 237.819 -300.718
-44.3981 237.863 -300.819
-11.3943 231.096 -309.094
-10.4849 231.445 -309.038
-13.209 229.967 -309.159
-12.4147 230.041 -309.296
-11.5991 230.371 -309.227
-11.765 231.351 -308.964
-9.73989 231.791 -308.979
-45.6354 228.591 -308.61
-44.1275 228.554 -308.946
-43.0208 228.625 -308.998
-11.7795 231.625 -308.632
-9.37558 232.383 -308.926
-8.33309 232.468 -308.863
-7.62864 233.055 -308.837
-43.1744 227.891 -309.129
-42.2625 228.044 -308.99
-41.4146 227.776 -308.885
-40.8457 227.765 -308.537
-12.403 230.771 -308.92
-8.87228 231.788 -308.864
-7.98932 231.779 -308.663
-46.1109 229.336 -308.601
-42.4765 228.848 -308.567
-11.4039 232.083 -308.245
-6.84406 233.377 -308.501
-46.5754 229.455 -308.453
-43.0413 229.506 -308.317
-10.7478 232.605 -308.061
-6.53495 234.338 -308.328
-46.6559 228.856 -308.277
-41.5934 228.22 -308.536
-11.8759 231.72 -308.092
-47.025 229.578 -308.198
-43.6205 230.183 -308.087
-10.0324 233.391 -307.666
-5.9681 234.616 -307.726
-47.6084 229.717 -307.763
-9.41922 234.426 -307.55
-47.3836 229.021 -307.868
-43.0876 229.705 -307.612
-48.0673 230.558 -307.283
-43.9548 230.787 -307.614
-9.33634 234.857 -306.895
-5.66959 235.168 -306.959
-44.1888 231.13 -306.816
-48.6808 231.356 -306.232
-44.7513 232.09 -306.76
-9.10719 235.973 -306.427
-5.5901 235.864 -306.035
-49.0344 230.558 -305.898
-48.9281 232.369 -305.122
-45.043 232.772 -305.811
-9.25993 236.744 -305.388
-5.64075 236.451 -305.185
-49.157 231.25 -305.247
-48.8774 233.283 -304.526
-45.2049 233.478 -304.848
-9.5467 237.405 -304.554
-5.96765 237.271 -304.486
-6.32917 238.003 -303.793
-48.9009 233.66 -303.821
-45.1682 234.106 -303.937
-9.97213 237.981 -303.817
-6.85051 238.663 -303.867
-10.5045 238.363 -303.115
-6.51111 238.291 -303.013
-48.7345 234.428 -303.113
-44.942 234.734 -303.131
-11.0874 239.306 -303.007
-7.52864 239.456 -303.495
-48.391 235.306 -303.083
-12.178 239.367 -301.836
-11.616 239.197 -302.379
-8.05183 239.828 -302.644
-48.0201 235.931 -302.38
-44.5308 235.328 -302.335
-12.3491 239.76 -301.54
-9.00779 240.349 -302.586
-44.0882 236.451 -302.315
-43.7091 237.215 -302.296
-43.3824 237.667 -302.07
-11.9573 240.155 -301.695
-11.5085 240.272 -301.186
-10.5245 240.476 -301.349
-9.6325 240.471 -301.83
-48.5031 235.129 -302.396
-47.3201 236.804 -301.869
-43.2789 237.899 -301.839
-46.6001 237.45 -301.743
-45.8362 237.652 -301.019
-43.4681 237.809 -301.448
-43.3376 237.562 -301.577
-11.6789 240.041 -300.485
-10.9577 240.27 -300.574
-45.3956 237.601 -300.304
-43.7774 237.687 -300.857
-44.6692 237.588 -300.091
-44.0542 237.6 -300.304
-45.9747 237.328 -300.228
-30.3549 218.355 -316.286
-23.0566 219.636 -316.305
-22.2214 219.769 -316.309
-33.2167 218.951 -315.887
-23.3708 220.14 -315.869
-22.6175 220.182 -315.991
-21.6721 220.475 -315.814
-20.7216 220.689 -315.685
-34.2541 220.439 -314.711
-23.6199 220.481 -315.408
-22.7508 220.68 -315.427
-34.9771 220.566 -314.41
-34.355 220.868 -314.198
-33.5253 220.89 -314.225
-32.7376 221.004 -313.966
-13.9339 229.28 -309.182
-12.9253 229.401 -309.414
-11.6695 229.423 -309.377
-41.8605 225.954 -309.228
-40.4882 225.897 -309.112
-15.787 228.01 -309.022
-14.9469 228.476 -309.109
-13.6247 228.649 -309.445
-12.4407 228.743 -309.534
-11.6898 228.737 -309.489
-13.8766 229.758 -308.883
-10.8641 229.949 -309.195
-43.2107 227.295 -309.204
-42.6014 227.337 -309.214
-41.699 227.345 -309.132
-40.7842 227.259 -308.883
-13.3575 230.245 -308.786
-10.517 230.627 -309.077
-9.38801 231.073 -308.849
-8.19784 231.183 -308.569
-43.1671 226.535 -309.186
-42.0907 226.784 -309.248
-41.1042 226.655 -309.136
-39.7612 226.506 -308.769
-38.907 226.369 -308.505
-10.1238 229.939 -308.997
-43.8687 227.372 -309.052
-40.0171 227.226 -308.402
-13.1116 230.57 -308.292
-7.46702 231.409 -308.41
-46.5458 227.817 -308.086
-45.1318 227.371 -308.638
-40.3916 227.687 -308.014
-12.4035 231.203 -308.229
-7.0141 232.095 -308.351
-44.3374 226.572 -308.914
-6.9841 231.327 -308.197
-47.1871 228.441 -307.894
-41.0446 228.085 -308.124
-12.111 231.45 -307.557
-6.07711 232.729 -307.93
-47.596 228.63 -307.647
-41.6926 228.492 -307.763
-11.3838 232.085 -307.587
-10.7028 232.684 -307.398
-5.95944 233.654 -307.855
-47.6292 228.068 -307.475
-5.18323 232.902 -307.176
-4.43241 232.664 -306.53
-48.0723 229.144 -307.254
-42.5254 229.143 -307.687
-10.29 233.054 -306.803
-5.38803 234.114 -307.067
-42.8935 229.398 -306.826
-9.73664 233.935 -306.859
-48.4836 228.21 -306.789
-4.6579 233.631 -306.204
-48.6765 230.078 -306.548
-43.5659 230.21 -306.979
-9.46959 234.565 -306.137
-5.16628 234.833 -306.133
-49.13 229.854 -305.967
-44.0238 230.607 -305.885
-48.8829 229.124 -306.395
-4.70118 234.606 -305.213
-49.3894 230.325 -305.272
-44.5579 231.639 -305.844
-9.3153 235.306 -305.346
-5.21827 235.656 -305.04
-4.84905 235.259 -304.396
-49.5284 231.065 -304.264
-44.8901 232.24 -304.892
-9.34688 236.02 -304.504
-5.52259 236.476 -304.437
-49.245 231.861 -304.457
-49.1353 232.736 -303.778
-45.0819 232.876 -303.997
-9.55035 236.682 -303.749
-5.65201 236.853 -303.728
-49.3942 231.891 -303.722
-49.0144 233.537 -303.087
-45.0786 233.501 -303.157
-9.91894 237.218 -303.064
-6.02301 237.536 -303.121
-10.4271 237.567 -302.418
-6.38602 238.067 -302.097
-48.9666 233.841 -302.377
-44.867 234.098 -302.343
-11.1006 238.513 -302.447
-7.114 238.962 -302.322
-12.4922 238.494 -301.071
-11.7604 238.565 -301.813
-7.76415 239.523 -301.608
-48.7248 234.513 -301.791
-44.4704 234.62 -301.518
-12.6736 239.222 -301.081
-8.59642 239.957 -301.331
-48.3465 235.336 -301.639
-44.022 235.794 -301.519
-43.5878 236.919 -301.623
-12.3406 239.726 -300.801
-9.6161 240.285 -300.888
-12.9985 238.64 -300.588
-7.90133 239.512 -300.986
-47.7637 235.987 -300.95
-43.4589 237.17 -300.885
-12.0524 239.636 -299.924
-10.2489 240.336 -300.581
-46.7728 236.969 -300.732
-11.227 239.914 -299.881
-10.3995 240.091 -299.99
-9.77283 240.145 -300.213
-46.3049 236.824 -299.637
-43.6325 237.205 -300.146
-45.3309 237.191 -299.559
-44.5085 237.197 -299.394
-44.0132 237.255 -299.688
-30.0534 251.02 -287.329
-30.3868 251.309 -287.083
-30.154 251.491 -286.878
-35.9227 215.87 -317.199
-34.9111 215.879 -317.308
-27.6579 216.958 -317.107
-26.3669 216.929 -317.231
-25.2433 216.943 -317.317
-24.2392 217.039 -317.341
-30.5374 218.149 -316.384
-23.5233 218.981 -316.575
-22.658 219.036 -316.638
-36.3083 216.787 -316.627
-35.1045 216.758 -316.824
-33.8949 216.734 -316.938
-32.5164 217.019 -316.862
-31.4518 217.03 -316.901
-30.3187 217.549 -316.67
-28.836 217.498 -316.715
-27.6756 217.903 -316.529
-26.6731 217.823 -316.692
-25.5336 217.781 -316.875
-24.5908 217.681 -317.039
-23.4272 218.012 -316.987
-21.9121 218.424 -316.874
-20.5785 218.538 -316.768
-19.2952 218.702 -316.614
-18.0348 218.82 -316.491
-16.8892 218.934 -316.386
-15.9395 219.05 -316.275
-30.5718 218.429 -316.196
-30.1744 218.23 -316.331
-23.9403 219.511 -316.18
-21.8586 219.292 -316.556
-33.3538 218.784 -315.955
-30.2088 218.51 -316.143
-21.51 219.821 -316.288
-20.8072 220.116 -316.07
-37.2022 217.342 -316.069
-36.193 217.728 -316.115
-35.2718 217.711 -316.291
-34.2889 217.654 -316.434
-33.0623 218.157 -316.246
-31.3613 218.069 -316.34
-29.5459 218.463 -316.074
-28.2371 218.504 -316.02
-27.0345 218.627 -316.036
-25.8166 218.641 -316.268
-24.5392 218.598 -316.574
-21.0697 219.329 -316.486
-19.889 219.708 -316.169
-18.4871 219.778 -315.982
-17.2314 219.782 -315.887
-16.1772 219.77 -315.814
-15.3458 219.694 -315.77
-33.4489 218.963 -315.857
-32.9609 218.852 -315.91
-24.1658 220.07 -315.628
-20.1072 220.51 -315.755
-34.581 219.801 -315.156
-33.1348 219.128 -315.729
-20.9504 221.126 -315.23
-20.1529 221.003 -315.363
-37.5427 218.183 -315.352
-36.5165 218.354 -315.621
-35.5587 218.428 -315.819
-34.1129 218.907 -315.755
-32.0907 219.135 -315.619
-30.4919 218.927 -315.723
-29.5018 219.183 -315.389
-28.7508 219.063 -315.476
-27.6589 219.293 -315.187
-26.1746 219.433 -315.387
-24.9364 219.434 -315.871
-19.0911 220.858 -315.313
-17.6171 220.69 -315.288
-16.4625 220.585 -315.234
-15.4978 220.439 -315.194
-35.012 220.123 -314.839
-33.886 219.921 -315.151
-24.1009 220.43 -315.213
-21.8413 221.076 -315.174
-35.5865 220.134 -314.59
-33.4733 220.394 -314.783
-32.7438 220.57 -314.49
-23.6 220.808 -314.685
-22.4303 221.2 -314.747
-37.7071 218.919 -314.625
-36.8271 218.964 -315.032
-35.6172 219.358 -315.165
-33.0374 219.791 -315.204
-31.9338 220.116 -314.738
-30.8978 219.746 -314.916
-29.9356 219.573 -314.977
-28.8962 219.668 -314.637
-24.9133 220.139 -314.968
-21.3551 221.583 -314.465
-19.9845 221.576 -314.663
-18.831 221.716 -314.469
-17.8967 221.513 -314.597
-16.7975 221.373 -314.571
-15.7617 221.211 -314.507
-35.6476 220.478 -314.113
-31.932 220.743 -313.913
-34.9826 220.875 -313.825
-34.0822 221.119 -313.673
-33.1928 221.199 -313.588
-32.4846 221.127 -313.536
-37.9157 219.449 -313.87
-36.6062 219.81 -314.273
-31.0891 220.306 -314.206
-30.0298 220.068 -314.179
-23.626 221.03 -313.753
-22.4825 221.5 -313.815
-21.3199 221.968 -313.64
-20.3569 222.087 -313.798
-19.2044 222.155 -313.827
-18.0851 222.11 -313.842
-17.1722 221.935 -313.972
-16.1522 221.926 -313.7
-37.3314 220.075 -313.286
-36.0329 220.608 -313.332
-34.8193 221.058 -313.071
-33.7414 221.217 -312.994
-32.8049 221.201 -313.037
-21.6214 221.95 -313.017
-20.6182 222.262 -313.033
-19.5661 222.432 -313.073
-18.4284 222.475 -313.032
-17.112 222.364 -313.074
-42.3063 224.916 -309.132
-40.9086 225.119 -309.142
-16.0928 227.516 -308.886
-15.369 227.788 -309.169
-14.3247 227.755 -309.375
-12.9602 227.984 -309.541
-11.6426 228.002 -309.465
-13.3758 227.176 -309.452
-12.279 227.356 -309.504
-11.6096 227.389 -309.467
-42.9008 225.698 -309.192
-39.953 225.291 -309.062
-16.1751 227.887 -308.864
-10.9519 228.609 -309.3
-43.4481 225.849 -309.143
-39.4303 225.708 -308.913
-38.7858 225.994 -308.627
-16.011 228.218 -308.662
-15.3742 228.66 -308.765
-10.2113 229.152 -309.013
-43.5906 225.262 -309.02
-39.2717 225.107 -308.9
-16.5037 227.678 -308.569
-10.2153 228.441 -309.062
-43.9998 225.934 -308.999
-38.4417 226.191 -308.344
-14.7136 229.159 -308.587
-9.4523 229.566 -308.73
-44.5682 226.03 -308.823
-38.8434 226.58 -308.007
-13.887 229.919 -308.334
-9.41045 230.21 -308.756
-8.21756 230.309 -308.327
-7.16717 230.76 -308.066
-44.6685 225.42 -308.7
-38.0242 226.081 -308.035
-16.3815 228.127 -308.155
-8.59517 229.584 -308.354
-7.76176 229.56 -307.952
-45.1124 226.243 -308.584
-39.6798 227.226 -307.825
-13.5013 230.191 -307.567
-6.35563 231.153 -307.814
-47.2535 227.045 -307.501
-46.1666 226.52 -308.06
-40.0967 227.497 -307.374
-12.7762 230.856 -307.597
-5.56976 231.78 -307.468
-4.57326 231.98 -306.783
-45.5912 225.609 -308.27
-5.5009 230.85 -307.239
-48.0606 227.401 -307.01
-40.8459 227.975 -307.517
-12.3246 231.063 -306.872
-4.05888 232.183 -306.308
-48.8352 227.345 -306.342
-41.3854 228.129 -306.811
-11.6283 231.655 -306.791
-10.9248 232.327 -306.775
-3.66877 232.078 -305.807
-49.2177 228.322 -306.067
-42.1819 228.727 -306.83
-10.4293 232.652 -306.041
-4.01313 232.794 -305.9
-42.7391 228.872 -305.877
-9.8965 233.501 -306.053
-49.5192 227.731 -305.779
-3.57078 232.695 -305.176
-49.5205 229.28 -305.492
-43.4219 229.675 -305.878
-9.58089 234.037 -305.254
-4.07187 233.649 -305.045
-43.9817 230.029 -304.901
-49.8387 228.347 -305.344
-3.56532 233.241 -304.48
-49.8236 230.017 -304.494
-44.4835 231.08 -304.893
-9.38206 234.668 -304.405
-4.42912 234.634 -304.229
-4.76079 235.322 -303.691
-50.1348 229.069 -304.569
-49.9486 230.602 -303.452
-44.855 231.671 -304.008
-9.34065 235.385 -303.63
-5.21547 236.054 -303.685
-50.2751 229.781 -303.66
-4.90473 235.656 -303.003
-49.6386 231.53 -302.965
-45.051 232.277 -303.204
-9.48969 236.03 -302.96
-5.59725 236.814 -302.923
-49.3736 232.269 -303.03
-49.1973 232.981 -302.318
-45.0388 232.842 -302.39
-9.82333 236.508 -302.326
-5.85654 237.233 -301.939
-10.304 236.815 -301.727
-6.2495 237.781 -301.257
-49.4574 232.204 -302.305
-48.992 233.702 -301.596
-44.8192 233.399 -301.561
-11.0502 237.717 -301.777
-6.74315 238.391 -301.162
-12.9795 237.899 -300.161
-12.3949 237.667 -300.565
-11.7761 237.746 -301.137
-6.46098 237.879 -300.556
-48.7848 234.068 -300.756
-44.4067 233.871 -300.727
-13.2204 238.378 -300.037
-7.39674 239.057 -301.003
-48.3813 234.967 -300.739
-43.9471 235.001 -300.645
-43.5724 236.135 -300.685
-12.9809 238.982 -300.35
-12.7207 239.182 -299.87
-8.06343 239.277 -300.23
-47.8214 235.318 -299.618
-43.3499 236.413 -299.897
-12.3486 239.19 -299.345
-9.05059 239.852 -300.212
-47.1438 236.253 -299.788
-11.5411 239.351 -299.115
-10.539 239.635 -299.276
-9.68631 239.768 -299.586
-12.7742 238.788 -299.196
-46.5898 236.279 -299.011
-43.4933 236.68 -299.345
-45.6458 236.472 -298.684
-44.6397 236.746 -298.788
-43.9387 236.802 -298.996
-47.1273 235.772 -298.952
-29.6857 248.745 -288.314
-30.0044 250.557 -287.671
-29.9832 249.765 -287.952
-30.2448 250.712 -287.567
-29.7673 250.324 -287.537
-30.5761 250.845 -287.268
-30.4575 250.158 -287.669
-30.8115 251.304 -286.598
-29.7964 251.033 -286.828
-30.4398 251.76 -286.488
-30.103 251.688 -286.375
-30.756 251.903 -285.979
-30.3773 252.06 -285.741
-30.8437 252.181 -285.286
-27.8286 207.175 -324.617
-26.5241 207.187 -324.726
-25.2888 207.259 -324.754
-24.0483 207.35 -324.727
-22.7891 207.436 -324.659
-21.6295 207.581 -324.568
-30.3355 207.815 -323.832
-28.9199 207.698 -324.139
-27.7988 208.068 -324.036
-26.8405 208.032 -324.163
-25.6762 208.1 -324.216
-24.4741 208.204 -324.224
-23.2549 208.318 -324.198
-22.0313 208.432 -324.151
-20.7582 208.498 -324.107
-19.576 208.822 -323.901
-31.5063 208.453 -323.154
-30.2944 208.734 -323.167
-29.3162 208.63 -323.385
-28.1734 208.703 -323.474
-27.0665 208.834 -323.498
-25.9412 208.934 -323.533
-24.7632 209.055 -323.554
-23.5647 209.185 -323.556
-22.3547 209.318 -323.539
-21.127 209.447 -323.502
-19.8939 209.598 -323.423
-18.6531 209.693 -323.321
-17.5308 209.985 -323.014
-32.7608 209.164 -322.364
-31.5408 209.469 -322.364
-30.599 209.416 -322.553
-29.5324 209.453 -322.66
-28.4484 209.491 -322.741
-27.3255 209.603 -322.756
-26.1678 209.755 -322.741
-24.9735 209.903 -322.748
-23.7673 210.046 -322.772
-22.5632 210.192 -322.785
-21.3539 210.341 -322.777
-20.133 210.492 -322.741
-18.9064 210.631 -322.668
-17.7235 210.747 -322.535
-16.774 210.703 -322.413
-33.9741 209.899 -321.549
-32.7839 210.209 -321.537
-31.8488 210.17 -321.72
-30.7846 210.227 -321.819
-29.7214 210.246 -321.914
-28.6439 210.279 -321.973
-27.5675 210.354 -321.986
-26.4274 210.549 -321.893
-25.1813 210.768 -321.826
-23.9182 210.913 -321.875
-22.6934 211.057 -321.925
-21.4871 211.214 -321.953
-20.2791 211.38 -321.951
-19.0594 211.541 -321.915
-17.8291 211.674 -321.832
-16.56 211.719 -321.687
-35.0828 210.573 -320.796
-34.0105 210.928 -320.733
-33.0911 210.91 -320.898
-32.0335 210.994 -320.982
-30.9544 211.043 -321.064
-29.8454 211.073 -321.133
-28.7722 211.066 -321.203
-27.7185 211.101 -321.214
-26.7777 211.141 -321.231
-25.5092 211.725 -320.731
-24.0637 211.814 -320.886
-22.786 211.93 -321
-21.5671 212.077 -321.07
-20.3645 212.248 -321.102
-19.1568 212.43 -321.099
-17.9359 212.597 -321.054
-16.7048 212.72 -320.953
-15.4906 212.803 -320.756
-35.7129 211.626 -319.88
-34.4117 211.634 -320.102
-33.3019 211.729 -320.187
-32.2206 211.807 -320.256
-31.1031 211.888 -320.303
-29.9463 211.938 -320.345
-28.7727 211.922 -320.404
-27.8556 211.778 -320.549
-26.6613 212.003 -320.33
-24.1598 212.782 -319.846
-22.8529 212.828 -320.06
-21.6251 212.941 -320.179
-20.4229 213.104 -320.243
-19.2224 213.296 -320.265
-18.0119 213.49 -320.248
-16.7918 213.65 -320.189
-15.5921 213.732 -320.081
-14.5979 213.672 -319.968
-36.8603 212.31 -319.169
-35.6395 212.616 -319.191
-34.6591 212.518 -319.395
-33.5217 212.554 -319.503
-32.3927 212.641 -319.554
-31.2604 212.734 -319.582
-30.0928 212.82 -319.595
-28.8346 212.868 -319.606
-27.3451 212.792 -319.65
-24.0028 213.837 -318.948
-22.8656 213.757 -319.196
-21.6771 213.817 -319.342
-20.4838 213.956 -319.424
-19.2866 214.147 -319.459
-18.0797 214.361 -319.455
-16.8616 214.556 -319.415
-15.6325 214.679 -319.333
-14.3595 214.659 -319.207
-37.9774 212.907 -318.502
-37.0055 213.296 -318.517
-36.0091 213.341 -318.656
-34.8441 213.396 -318.763
-33.7095 213.412 -318.859
-32.5643 213.488 -318.902
-31.4203 213.584 -318.921
-30.2917 213.666 -318.936
-29.1066 213.794 -318.906
-27.7569 213.905 -318.859
-26.2725 213.983 -318.774
-24.8435 214.327 -318.566
-23.7411 214.765 -318.376
-22.8494 214.679 -318.509
-21.7438 214.702 -318.623
-20.5738 214.813 -318.694
-19.3806 214.992 -318.724
-18.1707 215.219 -318.714
-16.9485 215.448 -318.669
-15.7265 215.615 -318.596
-14.5073 215.667 -318.483
-13.2772 215.581 -318.287
-36.5367 215.106 -317.531
-35.6274 215.078 -317.671
-28.2209 215.988 -317.602
-27.1947 215.986 -317.66
-25.9667 216.036 -317.693
-24.8181 216.182 -317.671
-38.551 213.884 -317.738
-37.5492 213.794 -318.092
-36.5016 214.219 -318.042
-35.0967 214.35 -318.138
-33.8939 214.278 -318.279
-32.7517 214.342 -318.317
-31.5969 214.447 -318.325
-30.4465 214.527 -318.343
-29.4724 214.497 -318.412
-28.2538 214.96 -318.186
-26.8014 215.008 -318.196
-25.4565 215.17 -318.127
-24.1232 215.524 -317.982
-22.9683 215.542 -318.013
-21.8794 215.583 -318.058
-20.7247 215.681 -318.088
-19.5338 215.84 -318.093
-18.322 216.063 -318.062
-17.0794 216.339 -317.979
-15.8384 216.556 -317.881
-14.6465 216.63 -317.783
-13.5128 216.574 -317.649
-12.4967 216.398 -317.446
-36.9853 215.751 -317.08
-34.7596 215.208 -317.679
-28.7506 216.496 -317.294
-23.9528 216.414 -317.599
-34.1622 215.76 -317.425
-33.2719 215.978 -317.362
-32.1565 216.139 -317.332
-31.012 216.331 -317.284
-29.7965 216.479 -317.255
-23.4613 217.014 -317.378
-22.5633 217.279 -317.295
-21.3565 217.466 -317.223
-20.113 217.611 -317.141
-18.8743 217.769 -317.049
-17.67 217.957 -316.948
-16.5445 218.204 -316.804
-39.4281 214.461 -317.036
-38.5664 214.815 -317.192
-37.5678 214.736 -317.527
-34.0171 215.105 -317.786
-32.9726 215.18 -317.807
-31.8367 215.311 -317.795
-30.6506 215.437 -317.787
-29.3484 215.493 -317.821
-23.1853 216.358 -317.642
-22.135 216.449 -317.63
-20.9733 216.564 -317.608
-19.7701 216.708 -317.572
-18.5565 216.9 -317.516
-17.3312 217.167 -317.412
-15.9834 217.589 -317.164
-14.768 217.611 -317.076
-13.6653 217.531 -316.968
-12.664 217.305 -316.85
-37.3488 216.425 -316.604
-15.6796 218.531 -316.574
-38.0116 216.6 -316.282
-15.2758 219.101 -316.18
-39.7597 215.357 -316.286
-39.0026 215.319 -316.711
-38.0956 215.693 -316.813
-14.8581 218.657 -316.365
-13.8015 218.519 -316.226
-12.8013 218.241 -316.133
-38.2832 217.287 -315.688
-14.7873 219.474 -315.807
-39.9499 216.261 -315.52
-38.9506 216.251 -316.101
-13.995 219.591 -315.398
-12.9563 219.208 -315.298
24.4766 223.158 -314.17
-38.5079 218.081 -314.937
-14.703 220.17 -315.204
-26.8272 219.725 -314.55
-25.9801 219.911 -314.634
-40.093 217.099 -314.729
-39.2435 217.181 -315.25
-14.0419 220.61 -314.423
-13.1335 220.183 -314.32
22.3913 223.76 -313.437
22.6948 223.782 -313.554
-38.6281 218.764 -314.182
-27.7427 219.756 -314.088
-25.534 220.138 -314.174
-14.8585 220.952 -314.488
-28.5622 219.937 -313.87
-24.6199 220.508 -313.882
-40.1632 217.768 -313.977
-39.3852 217.968 -314.436
-27.0077 219.805 -313.933
-26.3633 219.914 -313.963
-14.3466 221.305 -313.749
-13.4956 221.136 -313.28
-38.6197 219.184 -313.673
-29.1686 220.046 -313.891
-24.0167 220.783 -313.16
-15.1111 221.632 -313.729
-38.3963 219.601 -313.125
-30.848 220.477 -313.27
-29.6198 220.181 -313.37
-23.1723 221.228 -313.109
-22.4015 221.603 -312.938
-15.3766 222.099 -313.088
-39.3794 218.715 -313.5
-28.8914 220.051 -313.438
-14.4535 221.888 -312.766
-37.794 220.097 -312.763
-31.9834 220.966 -313.133
-21.7882 221.707 -312.322
-16.0311 222.333 -312.867
-37.1014 220.474 -312.303
-35.6876 220.902 -312.337
-34.4666 221.041 -312.163
-33.2693 221.054 -312.35
-32.4245 221.005 -312.58
-20.8364 222.12 -312.312
-19.8099 222.438 -312.326
-18.8882 222.594 -312.394
-17.7371 222.643 -311.959
-16.3461 222.537 -312.107
-38.2486 219.98 -312.335
-15.3353 222.34 -312.349
-14.6753 222.28 -311.924
-37.1697 220.577 -311.36
-36.3372 220.786 -311.54
-35.3908 220.932 -311.56
-18.0699 222.692 -311.305
-13.7568 226.26 -309.22
-12.5493 226.569 -309.353
-11.5978 226.843 -309.359
-14.3517 226.956 -309.307
-10.9942 227.241 -309.303
-43.3609 224.35 -308.935
-42.3161 223.975 -309.037
-41.0997 224.082 -309.047
-39.7807 224.512 -308.93
-16.6942 227.032 -308.302
-16.2037 226.976 -308.707
-15.412 227.011 -309.036
-10.2478 227.678 -309.057
-43.9549 222.931 -308.715
-43.0522 223.3 -308.891
-41.7241 223.263 -309.003
-40.7801 223.254 -308.968
-14.779 226.433 -309.11
-10.3716 227.008 -309.1
-44.2105 224.739 -308.787
-38.8446 224.645 -308.711
-16.891 227.411 -308.092
-9.4579 228.201 -308.713
-44.7064 224.745 -308.614
-38.5358 225.242 -308.603
-37.9558 225.662 -308.229
-16.6544 227.823 -308.198
-15.5815 228.665 -308.408
-8.83247 228.804 -308.394
-7.85619 228.967 -307.892
-44.5449 223.967 -308.551
-38.2276 224.53 -308.431
-8.52982 227.927 -308.23
-45.2479 224.886 -308.359
-37.5385 225.746 -307.841
-16.6465 227.869 -307.71
-16.0453 228.38 -308.224
-15.2327 228.871 -307.936
-7.22496 229.169 -307.587
-45.8099 225.119 -308.083
-38.2937 226.325 -307.115
-37.6931 225.951 -307.477
-16.1679 228.234 -307.717
-14.4434 229.375 -307.545
-6.94832 229.764 -307.604
-6.09488 230.306 -307.376
-45.938 224.477 -307.896
-37.1767 225.522 -307.494
-15.7475 228.549 -307.903
-6.60236 229.025 -307.193
-46.3133 225.501 -307.811
-39.2232 226.86 -307.08
-13.6039 229.768 -306.558
-5.11686 230.179 -306.737
-46.9995 226.126 -307.466
-39.9799 227.266 -306.787
-12.9293 230.512 -306.866
-4.63109 231.019 -306.673
-3.97432 231.566 -306.246
-47.1687 225.141 -307.104
-38.6009 226.452 -306.771
-47.9361 226.423 -306.844
-40.6106 227.652 -306.805
-12.4749 230.761 -306.433
-3.54217 231.473 -305.714
-49.5285 227.04 -305.629
-48.8353 226.353 -306.053
-41.0926 227.529 -305.92
-11.8483 231.095 -305.896
-11.038 231.932 -305.997
-48.1738 225.549 -306.35
-40.3439 227.264 -306.293
-12.7107 230.365 -306.064
-49.9583 227.65 -305.281
-41.978 228.187 -305.915
-10.4985 232.306 -305.398
-3.30269 231.9 -305.169
-42.6108 228.237 -305.003
-10.0135 233.012 -305.279
-11.3991 230.992 -304.743
-10.9158 231.703 -305.118
-50.4232 228.086 -304.566
-43.3828 229.019 -304.798
-9.68361 233.428 -304.408
-3.17094 232.548 -304.334
-44.0019 229.526 -304.119
-3.37628 233.296 -303.826
-50.7625 227.516 -304.247
-10.59 231.637 -304.099
-10.2188 232.419 -304.634
-50.6987 228.904 -303.573
-44.4927 230.457 -303.896
-9.40601 234.023 -303.403
-3.86605 233.979 -303.787
-50.9631 228.039 -303.753
-44.2735 229.588 -303.42
-9.84685 232.651 -303.605
-3.47127 233.664 -303.178
-50.5951 229.74 -302.756
-44.8778 231.238 -303.26
-9.31385 234.97 -302.872
-4.44791 234.961 -303.066
-50.2772 230.285 -302.898
-4.82551 235.585 -302.346
-50.0541 230.891 -302.26
-44.9967 231.6 -302.495
-9.44228 235.376 -302.215
-5.29307 236.297 -302.21
-50.4095 230.313 -302.25
-4.97681 235.791 -301.606
-49.6572 231.757 -301.616
-44.9709 232.142 -301.636
-9.75391 235.885 -301.633
-5.61522 236.783 -301.418
-49.3795 232.468 -301.579
-10.1484 236.195 -301.206
-9.81269 235.524 -301.062
-49.1068 233.068 -300.8
-44.7223 232.693 -300.776
-10.8981 236.794 -301.013
-5.96217 237.2 -300.768
-13.0782 237.099 -299.313
-12.5317 237.059 -299.876
-11.7886 236.96 -300.409
-6.44877 237.509 -299.808
-49.4102 232.304 -300.889
-48.7623 233.662 -299.922
-44.3009 233.184 -300.004
-13.2975 237.757 -299.414
-7.11299 238.376 -300.061
-48.4307 234.416 -299.808
-43.8531 234.141 -299.864
-43.3083 235.195 -299.581
-13.1488 238.445 -299.476
-7.94855 238.531 -299.125
-43.8425 233.441 -299.379
-48.0245 234.542 -298.954
-42.9843 235.757 -298.828
-12.8835 238.196 -298.647
-8.8371 239.259 -299.332
-12.216 238.712 -298.63
-11.4275 238.851 -298.388
-10.6795 239.067 -298.531
-9.7251 239.189 -298.792
-42.4271 235.152 -298.077
-47.3068 234.99 -298.343
-43.3725 236.272 -298.666
-46.3608 235.728 -298.186
-45.3917 235.895 -297.867
-44.6117 236.125 -298.035
-43.8069 236.236 -298.297
-29.3612 246.043 -289.147
-29.6743 248.149 -288.546
-29.6802 247.2 -288.768
-30.0005 248.55 -288.368
-29.4128 247.917 -288.456
-30.2325 247.622 -288.458
-30.3215 249.387 -288.015
-29.4521 249.053 -287.891
-30.6568 249.51 -287.7
-30.4976 248.633 -288.044
-30.9096 250.235 -287.109
-29.4 249.93 -287.146