<VTKFile type="UnstructuredGrid" version="0.1" byte_order="BigEndian">
  <UnstructuredGrid>
    <Piece NumberOfPoints="14644" NumberOfCells="29284">
      <PointData>
        <DataArray type="Float64" Name="position" NumberOfComponents="3" format="ascii">
-44.9728 211.75 -277.091
-44.0139 213.685 -274.985
-44.6789 209.421 -278.873
-45.0872 209.892 -278.522
-44.7177 210.033 -278.369
-45.0462 211.513 -277.301
-45.3989 210.52 -277.897
-44.9833 210.799 -277.792
-45.1042 211.746 -277.096
-44.7267 211.371 -277.125
-44.9577 211.914 -276.655
-45.3716 211.354 -277.147
-43.9876 213.545 -275.065
-44.7157 212.658 -275.643
-44.2403 213.424 -275.149
-43.7405 213.624 -274.731
-44.1104 213.707 -274.785
-44.636 213.293 -274.94
-43.7316 213.89 -274.218
-43.1974 213.969 -273.732
-44.6377 208.971 -279.171
-44.6182 208.409 -279.31
-44.8995 209.114 -279.074
-44.3911 208.788 -279.047
-45.2828 209.197 -278.835
-45.0972 208.538 -279.185
-45.598 209.716 -278.265
-44.3817 209.426 -278.53
-45.8562 210.447 -277.447
-44.4688 210.292 -277.758
-6.15187 214.408 -275.811
-46.018 211.148 -276.46
-44.3236 210.845 -276.911
-45.4266 211.981 -276.15
-6.31055 214.607 -275.609
-45.4101 212.501 -275.114
-44.2745 211.79 -276.033
-43.9772 213.01 -275.186
-45.9245 211.772 -275.671
-7.72731 215.542 -274.009
-44.9628 213.195 -274.321
-43.2906 213.108 -274.459
-44.3184 213.7 -274.39
-43.1387 213.693 -274.059
-44.0293 213.896 -274.017
-42.54 213.817 -273.32
-43.6537 213.965 -273.484
-43.0222 214.029 -273.344
-44.4189 213.67 -273.817
-43.7036 213.921 -272.735
-42.7829 214.016 -272.674
-41.887 214.03 -272.012
-44.4409 207.696 -279.444
-44.2646 206.75 -279.513
-43.3916 206.087 -279.56
-44.8311 207.796 -279.411
-44.0814 207.781 -279.19
-45.2408 208.042 -279.228
-45.3142 207.266 -279.265
-45.6731 208.506 -278.719
-44.0312 208.525 -278.675
-46.0793 207.417 -278.689
-5.5529 211.223 -277.516
-46.1534 209.401 -277.764
-44.0709 209.212 -278
-6.16486 214.1 -275.928
-46.4379 208.274 -277.956
-5.41758 213.232 -276.217
-46.4047 210.137 -276.848
-44.0933 209.872 -277.174
-6.33561 214.41 -275.777
-5.82977 214.019 -275.864
-46.7379 209.084 -277.041
-5.36381 213.787 -275.741
-46.5314 210.636 -276.069
-44.0366 210.514 -276.262
-6.54933 214.553 -275.403
-6.06105 214.545 -275.443
-7.59497 215.272 -274.167
-6.38467 214.751 -275.175
-46.8764 209.818 -276.1
-46.3435 211.221 -275.662
-43.7931 211.069 -275.285
-7.847 215.497 -273.974
-7.44483 215.456 -273.942
-46.236 211.667 -274.852
-43.5974 212.208 -274.912
-7.92275 215.604 -273.645
-46.7866 210.621 -275.165
-6.911 214.919 -274.597
-45.776 212.413 -274.041
-42.9017 212.373 -274.005
-42.4534 213.2 -273.6
-46.3885 211.711 -274.032
-8.45475 215.555 -273.225
-8.22902 215.728 -273.05
-45.097 213.145 -273.468
-41.8552 213.504 -273.039
-44.3893 213.64 -273.04
-41.5572 213.732 -272.473
-41.3962 213.403 -272.7
-44.2164 213.662 -272.24
-41.0113 213.879 -271.656
-43.4457 213.927 -272.127
-42.6102 214.027 -271.647
-41.6662 214.071 -271.481
-40.4207 213.674 -271.51
-42.7574 213.893 -270.912
-41.9162 214.018 -270.976
-38.9322 203.876 -281.028
-44.6096 205.676 -279.67
-43.4363 205.434 -279.857
-42.2191 204.856 -280.093
-41.3861 204.651 -280.194
-40.9148 204.599 -280.118
-45.0353 206.428 -279.505
-42.65 205.576 -279.553
-45.4356 206.554 -279.377
-43.2746 206.58 -279.056
-45.484 205.945 -279.381
-45.8245 206.627 -279.114
-43.6555 207.631 -278.709
-46.333 206.646 -278.678
-5.50844 210.863 -277.622
-46.1335 206.009 -278.968
-5.65385 210.378 -277.775
-46.7069 207.182 -278.062
-43.7114 208.177 -278.131
-5.75147 211.09 -277.416
-5.38538 211.324 -277.44
-5.56757 211.456 -277.338
-5.32252 212.654 -276.615
-5.34541 211.931 -276.972
-47.0545 207.963 -277.175
-43.8065 208.766 -277.382
-5.60077 212.711 -276.545
-4.98107 212.544 -276.468
-6.03157 213.307 -276.079
-47.2453 208.759 -276.195
-43.8588 209.309 -276.492
-6.42569 214.035 -275.696
-4.87879 213.197 -275.741
-5.1474 213.869 -275.265
-47.2824 209.493 -275.154
-43.8172 209.838 -275.527
-6.84093 214.183 -275.075
-5.61742 214.278 -275.298
-7.471 214.51 -274.271
-5.31813 214.245 -274.665
-47.1935 210.177 -274.038
-43.6092 210.274 -274.558
-8.03568 215.234 -273.768
-6.04211 214.753 -274.44
-46.7267 211.12 -274.209
-43.3202 211.399 -274.315
-8.62808 215.142 -273.152
-6.8639 215.283 -273.76
-5.4654 214.487 -274.129
-46.627 211.423 -273.741
-42.6937 211.534 -273.419
-8.84619 215.455 -272.887
-7.54419 215.614 -273.074
-46.3491 211.799 -273.316
-42.077 212.362 -273.145
-41.5637 213.024 -272.869
-8.86888 215.647 -272.492
-8.22346 215.772 -272.546
-46.8533 211.004 -273.428
-6.90071 215.404 -273.077
-45.7235 212.546 -273.119
-40.8406 213.11 -272.237
-45.1319 213.058 -272.386
-40.5809 213.527 -271.833
-46.0438 212.134 -272.38
-10.5475 215.017 -271.491
-9.82057 215.367 -271.782
-9.23334 215.675 -271.721
-8.5712 215.767 -271.905
-44.5916 213.407 -271.831
-40.1027 213.404 -271.374
-43.8693 213.605 -271.27
-40.3252 213.622 -271.067
-44.9724 213.064 -271.433
-43.1742 213.631 -270.449
-41.0907 213.947 -271.044
-42.1553 213.724 -270.249
-41.3233 213.868 -270.528
-43.8759 213.314 -270.304
-28.1585 196.879 -289.897
-26.9305 196.787 -290.069
-25.8357 196.74 -290.162
-24.9163 196.678 -290.233
-24.0069 196.892 -290.052
-23.1164 196.861 -290.072
-30.6335 197.399 -289.143
-29.2614 197.315 -289.381
-28.2282 197.542 -289.229
-27.2688 197.396 -289.424
-26.2895 197.229 -289.671
-25.1388 197.285 -289.621
-34.0441 197.771 -288.213
-32.9643 197.804 -288.395
-31.7153 197.802 -288.586
-30.6785 198.088 -288.369
-29.7134 197.983 -288.548
-28.7482 197.88 -288.753
-27.7267 197.917 -288.592
-26.2981 197.665 -288.939
-20.959 198.626 -288.398
-20.2454 198.918 -288.208
-19.3111 199.16 -288.125
-34.3056 198.302 -287.5
-33.3024 198.387 -287.624
-32.1696 198.407 -287.744
-31.1942 198.394 -287.879
-30.1689 198.502 -287.643
-28.8274 198.283 -287.93
-19.7052 199.36 -287.723
-18.9261 199.533 -287.623
-34.4857 198.616 -286.918
-33.6809 198.751 -286.915
-32.5701 198.809 -286.918
-31.2594 198.774 -287.024
-38.9371 203.814 -281.07
-39.0584 203.518 -281.001
-39.1237 203.86 -280.991
-38.7853 203.673 -280.944
-42.2141 204.415 -280.402
-41.6274 204.363 -280.466
-40.8426 204.335 -280.466
-39.034 203.823 -280.791
-42.1725 203.852 -280.591
-41.0471 203.867 -280.726
-39.8382 203.876 -280.686
-42.8884 204.503 -280.254
-40.411 204.351 -280.261
-45.296 204.992 -279.49
-44.0803 204.566 -279.954
-41.4629 204.895 -279.55
-40.6315 204.513 -279.844
-43.2367 203.842 -280.347
-7.6095 207.984 -278.639
-45.8861 205.456 -279.195
-42.2423 205.541 -278.849
-46.3294 205.444 -278.86
-42.7895 206.204 -278.405
-5.85791 209.695 -277.909
-46.0321 205.003 -279.093
-41.6233 205.023 -278.896
-7.71654 208.22 -278.276
-6.87171 208.703 -278.179
-6.02128 208.924 -278.269
-46.7448 206.056 -278.333
-43.2771 207.076 -278.149
-5.9285 210.45 -277.555
-5.32961 210.372 -277.789
-4.98325 210.952 -277.439
-42.8681 206.298 -277.771
-4.97087 210.347 -277.742
-47.3616 206.756 -277.302
-43.5204 207.805 -277.533
-6.13201 210.814 -277.086
-4.63765 211.667 -276.794
-5.81184 211.513 -277.041
-47.7975 206.077 -277.037
-4.01637 211.353 -276.37
-47.5937 207.681 -276.3
-43.614 208.12 -276.725
-5.92595 212.195 -276.524
-4.42438 212.289 -276.106
-6.31986 212.455 -275.882
-47.9519 206.702 -276.343
-3.91817 211.964 -275.572
-47.6813 208.427 -275.27
-43.7268 208.588 -275.751
-6.5676 213.311 -275.457
-4.33988 212.749 -275.393
-48.0491 207.451 -275.39
-4.00411 212.554 -274.727
-47.6706 209.058 -274.091
-43.7317 209.057 -274.769
-7.06115 213.425 -274.641
-4.6687 213.49 -274.625
-7.61342 213.6 -273.766
-48.0482 208.065 -274.412
-4.15878 212.99 -273.879
-47.5017 209.644 -273.422
-43.5658 209.454 -273.819
-8.14659 214.508 -273.488
-5.09451 214.15 -273.987
-43.2131 210.563 -273.632
-8.81099 214.497 -272.768
-5.49293 214.507 -273.307
-47.2485 210.22 -272.799
-42.6477 210.699 -272.777
-9.27857 215.135 -272.474
-6.32551 215.07 -273.142
-46.697 211.229 -272.502
-41.9214 211.481 -272.553
-41.0421 212.231 -272.235
-10.8507 214.547 -271.405
-10.1219 214.86 -271.843
-6.88707 215.33 -272.221
-46.3703 211.556 -271.427
-40.1923 212.513 -271.718
-11.0406 214.756 -271.149
-7.80238 215.655 -272.023
-45.6676 212.481 -271.572
-40.0404 213.005 -271.54
-10.5375 215.14 -271.115
-9.76076 215.474 -271.113
-8.94437 215.657 -271.187
-8.21743 215.649 -271.335
-39.4773 212.326 -271.095
-38.975 211.955 -270.676
-45.3756 212.688 -271.067
-39.6147 212.918 -270.783
-44.849 212.847 -270.516
-39.9998 213.357 -270.487
-45.7305 212.203 -270.794
-39.0721 212.257 -270.586
-44.1651 212.926 -269.788
-40.6015 213.689 -270.511
-43.0416 213.185 -269.584
-41.8374 213.325 -269.512
-41.0086 213.492 -269.902
-44.7625 212.49 -269.644
-40.2196 213.346 -270.066
-26.9553 187.716 -299.372
-25.6708 187.719 -299.531
-24.468 187.791 -299.577
-23.3144 187.897 -299.55
-22.2826 187.993 -299.492
-28.0826 188.196 -298.772
-26.9387 188.513 -298.702
-25.9859 188.465 -298.862
-24.829 188.508 -298.923
-23.6515 188.588 -298.917
-22.5058 188.663 -298.878
-21.3748 188.666 -298.865
-20.4553 188.835 -298.663
-30.4593 188.704 -297.72
-29.2288 188.681 -298.063
-28.1961 189.04 -297.948
-27.3024 189.051 -298.093
-26.2666 189.131 -298.143
-25.1607 189.189 -298.172
-23.9775 189.263 -298.165
-22.7858 189.342 -298.13
-21.6188 189.405 -298.076
-20.4534 189.467 -297.993
-30.9782 189.502 -296.792
-29.7479 189.493 -297.111
-28.6418 189.57 -297.264
-27.6178 189.664 -297.331
-26.6126 189.715 -297.391
-25.5353 189.804 -297.358
-24.3388 189.9 -297.304
-23.0988 189.971 -297.288
-21.8864 190.055 -297.234
-20.7448 190.117 -297.185
-19.7627 190.169 -297.126
-31.9632 189.989 -296.008
-30.923 190.307 -295.938
-30.0416 190.227 -296.212
-28.9906 190.221 -296.405
-27.9554 190.242 -296.525
-26.9208 190.285 -296.565
-25.9886 190.273 -296.653
-24.83 190.545 -296.281
-23.4423 190.555 -296.361
-22.1967 190.623 -296.353
-20.9238 190.763 -296.227
-19.8836 190.719 -296.352
-32.4984 190.866 -294.927
-31.2752 190.872 -295.196
-30.2379 190.898 -295.351
-29.2429 190.854 -295.539
-28.213 190.832 -295.661
-27.2814 190.77 -295.817
-26.034 190.956 -295.559
-19.918 191.228 -295.561
-33.5419 191.464 -294.052
-32.3136 191.703 -294.056
-31.454 191.575 -294.339
-30.4355 191.548 -294.499
-29.3852 191.492 -294.655
-28.4888 191.339 -294.912
-27.2495 191.456 -294.753
-34.7006 192.083 -293.165
-33.4606 192.373 -293.152
-32.5143 192.322 -293.36
-31.4484 192.3 -293.517
-30.6192 192.138 -293.77
-29.5137 192.245 -293.672
-28.2837 191.976 -294.003
-35.894 192.671 -292.31
-34.717 193.004 -292.298
-33.7663 192.991 -292.494
-32.6755 193.058 -292.6
-31.53 193.071 -292.711
-30.141 192.992 -292.852
-36.9626 193.097 -291.585
-36.0467 193.585 -291.448
-35.0885 193.623 -291.652
-34.0116 193.718 -291.778
-32.924 193.789 -291.884
-31.7743 193.867 -291.953
-30.5457 193.911 -292.002
-29.1548 194.043 -291.91
-27.7852 194.446 -291.593
-26.5571 194.598 -291.482
-25.4051 194.677 -291.421
-24.292 194.75 -291.347
-23.234 194.841 -291.235
-28.654 196.119 -290.455
-27.6373 196.102 -290.533
-26.4584 196.102 -290.594
-25.3607 196.112 -290.618
-24.3274 196.184 -290.561
-23.3188 196.321 -290.43
-36.6894 194.2 -290.678
-35.4214 194.376 -290.903
-34.2938 194.463 -291.07
-33.1959 194.526 -291.2
-32.0759 194.648 -291.252
-30.8654 194.76 -291.287
-29.7769 194.732 -291.377
-28.5542 195.222 -291.077
-27.1436 195.321 -291.052
-25.9386 195.384 -291.034
-24.8131 195.444 -290.992
-23.699 195.545 -290.888
-22.3804 195.746 -290.664
-20.9716 195.938 -290.416
-29.2007 196.554 -290.075
-22.5506 196.606 -290.195
-31.217 196.611 -289.782
-30.2132 196.578 -289.932
-23.2696 197.278 -289.681
-22.5528 197.072 -289.853
-37.4042 194.772 -289.81
-36.5299 195.132 -289.891
-35.7008 195.16 -290.144
-34.569 195.282 -290.315
-33.4095 195.32 -290.502
-32.4486 195.275 -290.687
-31.2649 195.691 -290.51
-29.7793 195.685 -290.671
-21.5259 196.948 -289.831
-19.8565 196.847 -289.782
-18.3832 197.128 -289.491
-17.2149 197.231 -289.323
-31.7076 197.049 -289.337
-24.0835 197.397 -289.545
-34.7364 197.097 -288.688
-33.8343 197.054 -288.958
-32.6924 197.051 -289.173
-24.4983 197.613 -289.175
-21.3307 198.35 -288.625
-20.6365 198.407 -288.71
-19.678 198.593 -288.618
-37.612 195.497 -288.925
-36.7443 195.729 -289.201
-35.957 195.782 -289.501
-34.9014 196.19 -289.453
-33.6239 196.195 -289.738
-32.3292 196.187 -289.966
-23.5218 197.698 -289.036
-22.4089 197.535 -289.344
-21.3956 197.897 -289.049
-20.3026 197.825 -289.177
-18.8942 198.094 -288.922
-17.5056 198.119 -288.748
-16.2136 198.041 -288.663
-15.024 198.229 -288.408
-14.2367 198.285 -288.27
-35.0278 197.628 -288.019
-25.2108 197.675 -288.937
-21.4298 198.502 -288.375
-18.8528 198.889 -288.383
-26.8449 197.955 -287.914
-25.5608 197.778 -288.223
-21.1604 198.742 -287.916
-20.3369 199.172 -287.737
-18.6145 199.302 -287.998
-36.9889 196.444 -288.224
-35.7893 196.646 -288.702
-24.4991 197.767 -288.577
-23.6041 197.877 -288.283
-22.2437 198.13 -288.439
-17.9526 199.024 -288.106
-16.6312 198.998 -287.908
-15.3804 198.964 -287.801
-14.3594 198.886 -287.734
-35.145 198.174 -287.228
-27.8479 198.204 -287.81
-20.0118 199.386 -287.453
-18.1986 199.561 -287.598
-29.3119 198.599 -286.909
-28.284 198.335 -287.179
-19.4376 199.585 -287.008
-18.3975 199.773 -287.108
-36.924 197.215 -287.133
-35.9943 197.419 -287.67
-27.5235 198.155 -287.364
-21.3411 198.736 -287.239
-20.5319 199.158 -287.234
-17.2402 199.777 -287.027
-15.7396 199.699 -287.033
-14.5896 199.573 -287.023
-34.9654 198.544 -286.573
-30.2408 198.8 -286.81
-34.1804 198.831 -286.319
-33.1182 198.985 -286.183
-31.8515 198.988 -286.024
-30.6583 198.881 -286.177
-36.9119 197.635 -286.132
-35.8935 198.04 -286.595
-29.8625 198.785 -286.333
-19.3582 199.652 -286.186
-18.229 199.973 -286.177
-16.9639 200.245 -286.004
-15.976 200.225 -286.172
-14.8389 200.133 -286.236
-36.8796 197.78 -285.359
-36.094 198.129 -285.577
-34.9492 198.575 -285.763
-33.7251 198.9 -285.555
-32.6373 199.013 -285.421
-17.2251 200.287 -285.312
-16.1407 200.425 -285.324
-15.0429 200.432 -285.415
-39.0033 202.627 -281.036
-39.6304 203.269 -281.021
-38.3419 203.021 -280.744
-42.1513 203.22 -280.742
-41.4678 203.243 -280.853
-40.4468 203.305 -280.958
-42.1688 202.52 -280.788
-40.8655 202.586 -281.014
-39.9487 202.766 -281.088
-37.4152 202.443 -280.394
-36.7739 202.134 -280.238
-12.212 204.606 -280.372
-11.9664 204.773 -280.37
-42.7941 203.243 -280.57
-38.6371 203.511 -280.58
-43.4198 203.332 -280.379
-39.1022 203.675 -280.092
-8.0732 207.423 -278.921
-43.5726 202.709 -280.364
-9.68045 206.183 -279.466
-8.88728 206.347 -279.535
-7.77518 206.819 -279.332
-6.53774 206.777 -279.318
-44.0232 203.573 -280.122
-39.9912 204.138 -279.909
-8.3288 207.629 -278.428
-7.48278 207.595 -278.989
-45.8121 204.432 -279.225
-44.9985 203.999 -279.667
-40.5414 204.323 -279.131
-6.98059 208.028 -278.743
-6.00526 208.167 -278.607
-45.9054 203.459 -279.203
-44.728 203.073 -279.861
-8.97701 206.821 -278.97
-6.82067 207.486 -279.05
-6.03854 207.333 -279.018
-46.6722 204.801 -278.556
-41.2187 204.701 -278.822
-8.03259 208.064 -277.98
-5.34391 209.024 -278.187
-41.6826 204.901 -278.186
-7.56855 208.466 -277.932
-7.26402 208.835 -277.61
-5.07217 209.82 -277.902
-47.0409 203.71 -278.385
-4.46903 209.225 -277.866
-3.81839 209.041 -277.561
-47.4109 205.659 -277.677
-42.3864 205.598 -277.946
-6.6571 209.663 -277.217
-4.58835 210.153 -277.611
-47.8486 205.554 -277.207
-42.7181 205.815 -277.074
-4.26534 210.723 -277.079
-47.8048 204.761 -277.485
-7.3107 208.878 -277.13
-3.97187 209.779 -277.33
-48.2248 205.735 -276.544
-43.2311 206.924 -277.08
-6.47879 210.61 -276.438
-3.63972 210.336 -276.63
-6.1607 211.393 -276.598
-48.612 204.923 -276.53
-48.479 206.507 -275.367
-43.4963 207.354 -275.978
-6.24569 211.824 -276.199
-3.483 210.995 -275.77
-6.46301 211.717 -275.742
-48.8209 205.598 -275.7
-6.39732 211.27 -276.091
-48.3698 207.283 -274.561
-43.6815 207.82 -274.978
-6.72267 212.221 -275.059
-3.50736 211.644 -274.844
-48.3633 207.669 -273.565
-43.7213 208.266 -274.018
-7.16366 212.497 -273.999
-3.67061 212.227 -273.893
-48.0163 208.443 -273.547
-7.63627 212.711 -273.104
-3.95851 212.764 -272.987
-47.7597 209.096 -272.77
-43.5725 208.651 -273.092
-8.21777 213.689 -272.96
-4.66863 213.681 -273.11
-43.2004 209.743 -272.921
-8.89615 213.704 -272.254
-5.18163 214.239 -272.348
-48.1393 208.274 -272.887
-47.4401 209.754 -271.763
-42.6209 209.921 -272.085
-9.55221 214.408 -272.122
-5.85042 214.702 -271.942
-47.0093 210.61 -271.716
-42.0168 210.695 -272.055
-41.0489 211.118 -271.595
-39.9715 211.759 -271.305
-39.2168 211.78 -270.852
-11.0023 213.963 -271.24
-10.3287 214.214 -271.605
-6.53134 215.05 -271.293
-12.3061 213.193 -270.737
-5.24889 214.247 -271.715
-46.7984 210.728 -270.778
-38.8897 211.56 -270.414
-11.6171 214.043 -270.918
-7.34308 215.297 -270.984
-11.2299 214.643 -270.648
-10.3871 215.064 -270.345
-9.33561 215.391 -270.432
-8.38437 215.446 -270.581
-47.1951 210.153 -271.088
-40.7529 210.464 -270.853
-40.0364 210.955 -270.809
-39.3112 211.315 -270.631
-12.3937 213.549 -270.6
-6.6285 214.973 -270.717
-46.2 211.404 -270.324
-38.8296 211.862 -270.302
-45.47 212.056 -269.935
-39.0691 212.171 -269.977
-10.4642 214.761 -269.563
-9.64564 215.022 -269.643
-8.69047 215.158 -269.765
-44.9732 211.889 -269.08
-39.6604 212.885 -270.005
-43.945 212.458 -269.002
-42.8673 212.61 -268.714
-41.9763 212.842 -268.869
-40.9904 212.95 -269.112
-40.1724 212.945 -269.491
-27.4335 186.914 -299.848
-26.4355 186.899 -299.998
-25.2223 186.958 -300.1
-24.0245 187.074 -300.108
-22.8865 187.243 -300.03
-28.3362 185.639 -300.218
-27.2436 186.055 -300.288
-25.901 186.108 -300.475
-24.6754 186.214 -300.544
-23.4497 186.374 -300.511
-22.1197 186.655 -300.332
-20.7839 186.685 -300.183
-19.4705 186.737 -299.948
-18.2478 186.826 -299.718
-27.948 187.356 -299.472
-22.0233 187.467 -299.877
-28.6858 187.394 -299.272
-21.5407 187.97 -299.492
-20.7646 188.216 -299.223
-30.5558 186.224 -299.276
-29.3505 185.993 -299.79
-28.4124 186.612 -299.792
-21.2168 187.459 -299.804
-19.9846 187.74 -299.442
-18.6282 187.743 -299.246
-17.3382 187.715 -299.107
-16.2158 187.97 -298.803
-29.1785 187.836 -298.816
-19.979 188.557 -298.852
-30.9938 188.033 -298.119
-30.0936 187.917 -298.485
-31.805 186.648 -298.597
-30.8589 187.254 -298.668
-29.6281 187.023 -299.215
-18.9614 188.747 -298.526
-17.6726 188.68 -298.425
-16.4978 188.689 -298.295
-15.4285 188.659 -298.157
-31.5222 188.594 -297.479
-19.7088 189.186 -298.244
-19.5565 189.748 -297.64
-33.0855 187.354 -297.689
-31.8555 187.718 -298
-18.8605 189.661 -297.648
-17.8496 189.593 -297.594
-16.6857 189.552 -297.526
-15.5651 189.496 -297.445
-14.6249 189.344 -297.381
-31.9971 189.165 -296.818
-19.0343 190.158 -297.109
-32.7213 189.289 -296.45
-34.2426 187.949 -296.81
-33.451 188.17 -297.047
-32.6502 188.457 -297.163
-18.0657 190.441 -296.667
-16.823 190.412 -296.622
-15.6502 190.367 -296.575
-14.4522 190.254 -296.495
-33.1656 189.913 -295.704
-18.9627 190.683 -296.406
-23.7152 191.119 -295.37
-22.499 191.133 -295.449
-21.3676 191.2 -295.455
-20.5228 191.306 -295.372
-34.9701 188.913 -295.796
-33.6834 188.933 -296.364
-18.0297 191.264 -295.58
-16.9132 191.228 -295.638
-15.7462 191.214 -295.631
-14.5871 191.168 -295.586
-13.5627 191.051 -295.514
-33.6066 190.554 -294.95
-24.7636 191.161 -295.243
-19.8977 191.621 -294.912
-19.0429 191.258 -295.564
-34.3413 190.689 -294.592
-25.2014 191.505 -294.653
-19.2674 191.656 -294.922
-35.945 189.435 -294.934
-35.1894 189.655 -295.157
-34.3594 189.863 -295.321
-24.0343 191.707 -294.345
-22.7258 191.655 -294.507
-21.5571 191.675 -294.599
-20.523 191.703 -294.692
-18.2229 191.953 -294.562
-16.982 191.979 -294.634
-15.821 192.006 -294.661
-14.6516 192.014 -294.642
-13.426 191.955 -294.568
-34.706 191.179 -294.021
-26.0137 191.606 -294.496
-35.4451 191.281 -293.69
-26.4104 191.988 -293.925
-36.8635 189.895 -294.096
-36.1899 190.184 -294.283
-35.3594 190.407 -294.469
-25.1476 192.151 -293.672
-23.8236 192.301 -293.434
-22.8444 192.215 -293.597
-21.689 192.213 -293.701
-20.5232 192.247 -293.801
-19.2598 192.224 -294.026
-17.9579 192.646 -293.574
-17.0096 192.674 -293.668
-15.8809 192.745 -293.704
-14.728 192.804 -293.704
-13.5709 192.819 -293.662
-12.546 192.757 -293.589
-35.8463 191.778 -293.122
-27.1991 192.113 -293.775
-36.5551 191.891 -292.778
-28.4484 192.636 -293.151
-27.5916 192.494 -293.285
-37.5432 190.633 -293.212
-36.4459 190.973 -293.547
-26.4022 192.656 -293.062
-25.1414 192.836 -292.803
-24.1188 192.8 -292.827
-22.9584 192.82 -292.81
-21.8128 192.823 -292.858
-20.6394 192.872 -292.9
-19.4366 192.959 -292.939
-18.2151 193.133 -292.876
-17.0545 193.324 -292.79
-15.9343 193.451 -292.79
-14.7897 193.555 -292.789
-13.6347 193.617 -292.763
-12.4228 193.609 -292.684
-36.9292 192.357 -292.246
-29.1469 192.868 -292.919
-37.5491 192.447 -291.887
-29.0425 193.334 -292.461
-28.1999 193.644 -292.165
-27.1098 193.839 -291.985
-26.0115 193.951 -291.876
-24.9148 194.007 -291.812
-23.8208 194.097 -291.713
-38.2429 191.099 -292.457
-37.4297 191.664 -292.55
-28.4948 193.116 -292.624
-27.5525 193.099 -292.621
-26.535 193.359 -292.343
-25.5757 193.339 -292.333
-24.4541 193.398 -292.249
-23.1909 193.542 -292.108
-21.9621 193.519 -292.123
-20.7703 193.575 -292.102
-19.5749 193.662 -292.085
-18.3699 193.812 -292.037
-17.1753 193.991 -291.973
-16.0065 194.161 -291.928
-14.8512 194.3 -291.906
-13.7092 194.391 -291.887
-12.5985 194.413 -291.848
-11.5931 194.379 -291.749
-37.7775 192.914 -291.37
-22.9434 194.26 -291.561
-37.5086 193.507 -290.986
-22.4267 194.79 -291.206
-21.5576 195.035 -291.002
-38.3589 192.159 -291.564
-22.1502 194.22 -291.557
-20.9324 194.424 -291.378
-19.7173 194.428 -291.362
-18.5106 194.578 -291.27
-17.2927 194.754 -291.181
-16.1033 194.917 -291.116
-14.9271 195.078 -291.057
-13.7695 195.185 -291.019
-12.6608 195.204 -291.001
-11.6376 195.113 -290.989
-37.6351 193.986 -290.467
-20.6443 195.264 -290.79
-38.1132 194.109 -290.028
-20.0531 195.855 -290.388
-19.1063 196.107 -290.172
-17.951 196.332 -289.96
-38.9033 192.788 -290.588
-38.2184 193.323 -290.702
-19.8419 195.209 -290.781
-18.737 195.359 -290.647
-17.4153 195.67 -290.407
-16.2203 195.728 -290.374
-15.0458 195.908 -290.255
-13.8575 196.04 -290.155
-12.7084 196.052 -290.115
-11.6614 195.936 -290.129
-38.2295 194.698 -289.296
-17.0323 196.573 -289.746
-16.4365 197.155 -289.315
-15.6064 197.387 -289.099
-14.6239 197.61 -288.858
-78.3423 188.61 -289.051
-38.8347 193.717 -289.732
-16.3013 196.526 -289.75
-15.2723 196.697 -289.596
-14.0204 197.025 -289.265
-12.8268 196.948 -289.227
-11.6524 196.871 -289.131
-38.2444 195.313 -288.604
-13.834 197.923 -288.5
-37.8468 195.902 -288.257
-75.2405 189.961 -288.265
-75.0964 190.002 -288.242
-38.914 194.683 -288.524
-12.935 197.948 -288.258
-12.0186 197.604 -288.411
-11.1055 197.685 -288.028
-37.7817 196.433 -287.516
-13.5815 198.595 -287.833
-25.9094 197.614 -287.189
-24.4866 197.688 -287.636
-23.1561 197.92 -287.596
-22.0797 198.33 -287.475
-39.0756 195.316 -287.427
-38.4351 195.666 -287.894
-12.7817 198.906 -287.17
-11.8058 198.372 -287.372
-37.7468 196.945 -286.549
-26.9549 197.912 -287.143
-21.7324 198.379 -286.732
-13.6396 199.329 -287.051
-28.5519 198.284 -286.312
-27.6423 198.025 -286.72
-21.021 198.848 -286.736
-20.2383 199.219 -286.389
-38.5367 196.161 -286.912
-12.9696 199.633 -286.274
-12.0532 199.191 -286.24
-37.6762 197.253 -285.509
-29.3168 198.608 -286.184
-19.7232 199.382 -285.778
-13.8499 199.941 -286.285
-30.9651 198.792 -285.321
-29.8745 198.594 -285.664
-18.968 199.683 -285.528
-18.0892 200.013 -285.174
-38.4152 196.632 -286.009
-29.0825 198.37 -285.785
-20.2475 198.954 -285.689
-13.281 200.094 -285.652
-12.4862 199.849 -285.309
-37.1407 197.58 -284.808
-31.8113 198.984 -285.256
-17.3834 200.154 -284.716
-14.0377 200.315 -285.526
-36.3477 197.928 -284.744
-35.3307 198.297 -284.844
-34.2286 198.604 -284.883
-33.1439 198.783 -284.841
-32.1958 198.845 -284.817
-16.3963 200.277 -284.504
-15.2218 200.426 -284.595
-14.1455 200.407 -284.721
-31.5034 198.817 -284.866
-17.8802 199.874 -284.564
-13.2592 200.251 -284.952
-42.1788 201.696 -280.845
-41.3149 201.709 -280.985
-39.9101 201.878 -281.101
-38.7005 201.696 -281.054
-37.6758 201.929 -280.795
-36.8796 201.96 -280.485
-12.2599 204.334 -280.384
-11.9115 204.523 -280.463
-42.232 200.822 -280.843
-40.5515 200.771 -281.069
-39.135 200.882 -281.098
-37.971 201.033 -280.976
-37.1109 201.076 -280.787
-11.9484 203.993 -280.431
-11.1405 204.306 -280.449
-9.94535 204.392 -280.411
-42.971 201.778 -280.627
-36.4351 201.797 -280.285
-12.4143 204.382 -280.156
-11.5363 204.791 -280.358
-43.8906 201.911 -280.318
-37.012 202.263 -279.769
-36.4171 201.912 -280.004
-12.1352 204.723 -280.144
-11.6792 204.917 -280.168
-10.1088 205.781 -279.732
-9.491 205.779 -279.84
-8.31328 205.874 -279.814
-6.87871 205.889 -279.671
-44.6824 200.92 -280.079
-43.698 201.101 -280.439
-10.6664 205.15 -280.007
-9.03774 205.035 -280.17
-7.64714 205.138 -280.033
-6.82881 205.14 -279.913
-44.4481 202.352 -280.057
-38.1047 202.997 -280.002
-10.3964 205.787 -279.409
-6.06849 206.293 -279.424
-45.9114 202.557 -279.295
-45.2693 202.445 -279.654
-38.7158 203.178 -279.16
-9.93211 206.244 -279.021
-5.59117 206.714 -279.147
-45.7904 201.603 -279.423
-44.6559 201.707 -280.009
-5.60154 206.233 -279.329
-46.5504 202.753 -278.857
-39.6094 203.742 -279.143
-9.73663 206.454 -278.446
-5.23025 207.442 -278.755
-47.2117 203.03 -278.362
-40.1489 203.74 -278.233
-9.05009 207.041 -278.26
-4.72685 208.229 -278.286
-4.02199 208.547 -277.884
-47.2324 202.163 -278.394
-4.43788 207.432 -278.463
-47.871 203.468 -277.746
-40.9221 204.259 -278.155
-8.56224 207.482 -277.656
-3.54564 208.525 -277.559
-41.4193 204.25 -277.243
-7.81411 208.285 -277.42
-48.3608 202.646 -277.429
-48.4311 204.237 -277.066
-42.1151 204.952 -277.155
-7.60546 208.406 -276.658
-3.33564 209.213 -276.979
-48.9171 204.327 -276.501
-42.5982 205.155 -276.201
-7.15191 209.076 -276.627
-49.118 203.117 -276.649
-48.7242 203.642 -276.943
-49.2166 204.816 -275.742
-43.1161 206.182 -276.123
-6.8735 209.683 -276.128
-3.0646 209.939 -276.007
-49.3618 203.921 -276.086
-49.2417 205.483 -275.003
-43.4606 206.634 -275.152
-6.69295 210.753 -275.379
-3.03067 210.654 -274.981
-48.9355 206.051 -274.905
-48.8034 206.665 -274.022
-43.6722 207.093 -274.234
-6.89358 211.264 -274.187
-3.17702 211.327 -273.963
-49.191 205.924 -274.368
-48.6411 207.188 -273.156
-43.7122 207.497 -273.311
-7.18361 211.628 -273.227
-3.41726 211.891 -272.884
-7.58026 211.849 -272.414
-3.77426 212.471 -272.178
-48.4168 207.658 -272.349
-43.5611 207.875 -272.4
-8.2006 212.823 -272.33
-4.23962 213.102 -272.009
-48.0624 208.436 -272.212
-43.2043 208.948 -272.21
-12.7939 212.587 -270.566
-8.88694 212.844 -271.679
-3.92313 212.582 -271.421
-47.7908 208.875 -271.462
-42.5953 209.135 -271.364
-12.9071 212.94 -270.482
-12.1195 212.599 -270.621
-9.65928 213.633 -271.677
-4.81591 213.785 -271.774
-41.7177 210.072 -271.258
-11.4061 213.239 -270.906
-10.4773 213.478 -271.244
-5.29147 214.067 -270.941
-48.1219 208.203 -271.615
-13.194 212.516 -270.505
-47.4074 209.542 -270.793
-40.9348 209.794 -270.36
-12.5946 213.372 -270.234
-6.08402 214.643 -270.762
-47.0716 210.107 -270.439
-40.0762 210.292 -270.223
-39.3714 210.746 -270.157
-38.9451 211.125 -270.122
-11.9827 213.986 -270.347
-11.2858 214.412 -269.844
-6.67559 214.678 -270.007
-46.5717 210.482 -269.741
-38.7748 211.373 -269.778
-10.802 214.387 -269.162
-7.73024 215.046 -269.899
-45.803 211.269 -269.345
-38.9087 211.501 -269.106
-9.89085 214.508 -268.859
-8.87894 214.755 -269.011
-8.10355 214.825 -269.217
-11.384 213.981 -269.142
-45.1521 211.121 -268.424
-39.4445 212.274 -269.277
-44.197 211.649 -268.258
-43.1208 212 -268.148
-42.0373 212.202 -268.163
-41.0086 212.317 -268.375
-40.104 212.334 -268.747
-25.1405 183.823 -300.997
-23.7672 183.907 -301.118
-22.5601 184.045 -301.151
-21.4539 184.196 -301.111
-20.4827 184.302 -301.001
-19.6785 184.282 -300.807
-28.2849 185.031 -300.382
-27.5387 185.076 -300.525
-26.3928 185.239 -300.705
-25.233 185.373 -300.829
-24.0398 185.481 -300.87
-22.796 185.634 -300.822
-21.5345 185.756 -300.705
-20.264 185.783 -300.523
-18.8102 185.657 -300.212
-28.1551 184.308 -300.383
-26.5973 184.264 -300.775
-25.6205 184.653 -300.938
-24.5567 184.645 -301.041
-23.3373 184.746 -301.079
-22.1326 184.874 -301.04
-20.9779 184.963 -300.931
-19.9015 184.943 -300.747
-19.1385 184.723 -300.548
-28.9651 185.143 -300.14
-17.7499 186.245 -299.829
-30.6801 185.554 -299.438
-29.9882 185.383 -299.73
-17.3812 186.878 -299.566
-16.6012 187.21 -299.261
-30.7152 184.867 -299.415
-29.4681 184.56 -299.953
-16.8785 186.41 -299.552
-15.8564 186.777 -299.136
-14.8997 186.709 -298.71
-31.3364 185.762 -299.096
-15.8473 187.507 -298.96
-32.0069 185.992 -298.751
-15.4961 188.001 -298.629
-32.0678 185.307 -298.762
-15.0186 187.551 -298.595
-14.0301 187.258 -298.121
-32.6891 186.26 -298.337
-14.9301 188.261 -298.279
-33.5933 186.559 -297.824
-14.6108 188.738 -297.857
-34.9602 185.696 -297.207
-34.1607 185.547 -297.668
-33.3648 185.71 -298.09
-14.089 188.266 -297.827
-13.1999 187.881 -297.417
-34.0946 187.097 -297.371
-13.984 189.038 -297.353
-34.8055 187.25 -296.916
-35.6946 186.138 -296.797
-35.2525 186.274 -297.047
-34.5271 186.377 -297.389
-12.9374 188.967 -296.748
-35.3325 187.939 -296.221
-13.6951 189.723 -296.704
-13.4555 190.426 -296.057
-35.5933 186.896 -296.574
-12.7526 190.105 -295.965
-11.905 189.692 -295.707
-35.7977 188.616 -295.55
-12.827 190.809 -295.471
-36.2259 188.77 -295.197
-36.3243 188.004 -295.469
-11.7737 190.782 -294.913
-36.6843 188.998 -294.739
-12.616 191.482 -294.791
-37.1957 189.287 -294.223
-12.4205 192.17 -294.124
-37.3179 188.535 -294.384
-11.6979 191.89 -294.062
-10.8111 191.499 -293.841
-37.7525 189.661 -293.593
-11.8127 192.563 -293.555
-38.1219 188.872 -293.501
-10.7979 192.59 -293.053
-38.2172 190.399 -292.909
-11.6162 193.199 -292.898
-38.5858 190.615 -292.502
-11.4289 193.839 -292.251
-38.6778 189.871 -292.679
-10.7252 193.582 -292.207
-9.93897 193.208 -292.105
-38.9588 190.989 -291.873
-10.8403 194.21 -291.687
-39.4136 190.148 -291.795
-9.83302 194.17 -291.182
-39.291 191.916 -290.884