<VTKFile type="UnstructuredGrid" version="0.1" byte_order="BigEndian">
  <UnstructuredGrid>
    <Piece NumberOfPoints="15336" NumberOfCells="30664">
      <PointData>
        <DataArray type="Float64" Name="position" NumberOfComponents="3" format="ascii">
-43.8939 180.125 -253.398
-44.0431 180.568 -252.893
-2.47432 185.63 -251.847
-44.2093 181.152 -252.183
-3.00436 186.038 -251.451
-2.71855 186.318 -251.054
-44.3556 181.583 -251.65
-3.49484 186.814 -250.502
-43.2813 182.816 -249.719
-4.28019 187.124 -249.897
-4.05621 187.472 -249.672
-4.6078 187.536 -249.264
-26.9097 170.963 -266.364
-28.995 171.619 -265.412
-28.5892 171.63 -265.291
-43.9127 179.873 -253.636
-43.9237 179.372 -253.861
-3.07565 182.67 -253.944
-44.2074 180.111 -253.329
-43.6808 179.637 -253.641
-2.37526 185.045 -252.427
-44.4464 179.463 -253.593
-2.18385 184.562 -252.743
-44.4705 180.775 -252.581
-43.6876 180.091 -253.12
-2.74162 185.298 -252.139
-2.05846 184.981 -252.262
-3.1864 185.519 -251.669
-44.7613 180.119 -252.854
-44.5854 181.348 -251.895
-43.794 180.663 -252.378
-3.45925 186.17 -251.094
-2.06708 185.66 -251.317
-2.42247 186.397 -250.6
-44.9149 180.832 -252.02
-44.5661 181.666 -251.492
-43.9175 181.394 -251.43
-3.95338 186.445 -250.49
-2.92155 186.853 -250.233
-44.3661 181.827 -251.087
-43.3146 182.627 -249.842
-4.56855 186.644 -249.786
-44.8218 181.481 -251.223
-2.50705 186.675 -249.983
-43.4616 182.731 -249.868
-42.8932 182.682 -249.442
-4.81535 187.207 -249.375
-3.50713 187.32 -249.682
-43.3875 182.781 -249.6
-3.96374 187.652 -249.275
-43.7793 182.255 -250.199
-5.16999 187.384 -248.735
-4.34047 187.718 -249.145
-4.73983 187.641 -248.514
-42.9101 182.937 -248.93
-41.9649 183.119 -248.393
-41.2788 183.215 -248.102
-5.62845 187.157 -248.361
-4.1822 187.715 -248.823
-25.9217 162.97 -276.24
-24.6617 162.947 -276.464
-23.4719 163.02 -276.508
-22.2077 163.162 -276.447
-20.9482 163.297 -276.408
-19.8621 163.416 -276.372
-27.024 163.33 -275.561
-25.9822 163.559 -275.487
-25.0223 163.502 -275.702
-24.0199 163.439 -275.919
-22.8752 163.697 -275.644
-21.3565 163.852 -275.587
-20.0985 163.889 -275.697
-18.947 163.959 -275.718
-17.9062 164.206 -275.453
-27.9364 163.665 -274.822
-27.0764 163.895 -274.745
-26.4114 163.846 -274.982
-25.4235 164.03 -274.817
-24.0606 163.963 -275.083
-20.302 164.32 -274.973
-19.2509 164.413 -274.969
-18.2028 164.541 -274.897
-17.3355 164.639 -274.836
-28.1826 164.075 -274.086
-27.417 164.211 -274.102
-26.3903 164.289 -274.207
-23.9547 168.995 -268.414
-22.72 169.014 -268.475
-21.6083 169.058 -268.496
-29.9345 169.185 -267.67
-28.6808 169.24 -267.776
-27.5125 169.335 -267.805
-26.2951 169.386 -267.85
-24.9826 169.363 -267.971
-23.9475 169.651 -267.779
-23.0626 169.647 -267.839
-21.9072 169.724 -267.825
-20.5993 169.758 -267.891
-19.2565 170.056 -267.711
-18.1343 170.25 -267.61
-27.0125 170.825 -266.51
-33.6203 169.539 -266.679
-32.3267 169.546 -266.959
-30.9941 169.58 -267.176
-29.8907 170.035 -266.966
-28.9038 170.045 -267.07
-27.913 169.978 -267.22
-26.7646 170.25 -267
-25.4655 170.013 -267.219
-24.3294 170 -267.27
-23.4426 170.017 -267.348
-22.4391 170.216 -267.116
-21.0527 170.412 -267.039
-19.7092 170.598 -267.03
-18.4121 170.855 -266.929
-17.1087 171.005 -266.919
-15.8567 171.329 -266.672
-27.1707 170.974 -266.377
-26.4718 170.772 -266.304
-29.331 171.376 -265.694
-28.6453 171.344 -265.759
-27.0064 170.996 -266.146
-34.5238 169.905 -265.986
-33.5028 170.32 -265.884
-32.5633 170.319 -266.129
-31.3689 170.376 -266.332
-30.3636 170.428 -266.503
-29.3053 170.798 -266.307
-27.7797 170.83 -266.364
-25.7549 170.441 -266.58
-24.7186 170.332 -266.56
-23.4495 170.309 -266.657
-20.1252 170.915 -266.374
-18.8583 171.32 -266.09
-17.4757 171.647 -266.069
-16.1726 171.916 -265.981
-14.8782 172.091 -265.894
-13.7252 172.401 -265.571
-29.4745 171.596 -265.252
-27.9435 171.365 -265.336
-29.0012 171.737 -264.96
-28.4457 171.663 -264.896
-34.8568 170.446 -265.106
-33.8788 170.71 -265.206
-32.8099 170.897 -265.313
-31.6682 170.998 -265.483
-30.2813 171.156 -265.625
-27.2384 171.094 -265.67
-17.8115 172.024 -265.192
-16.5441 172.394 -265.163
-15.2675 172.673 -265.068
-14.0728 172.856 -264.97
-13.0968 172.912 -264.896
-34.2623 171.039 -264.367
-33.1451 171.249 -264.486
-31.994 171.395 -264.613
-30.9532 171.468 -264.816
-29.827 171.686 -264.494
-28.7905 171.695 -264.362
-16.9018 172.581 -264.41
-15.643 173.019 -264.157
-14.3655 173.242 -264.193
-13.2627 173.305 -264.2
-33.4748 171.382 -263.688
-32.3343 171.554 -263.736
-31.0179 171.7 -263.874
-14.5491 173.426 -263.384
-13.4449 173.525 -263.416
-4.52833 180.231 -255.705
-42.8008 176.968 -255.09
-4.54552 180.644 -255.115
-3.67326 180.921 -255.198
-2.7054 181.248 -254.951
-43.7407 178.691 -254.208
-3.28482 182.31 -254.046
-43.5383 177.769 -254.59
-42.8575 177.307 -254.749
-3.91427 181.459 -254.406
-3.02371 182.014 -254.4
-2.20319 181.965 -254.301
-44.1422 178.773 -254.088
-43.4124 178.716 -253.999
-3.18086 182.632 -253.777
-2.94975 182.658 -253.991
-44.5731 178.937 -253.802
-2.93658 182.867 -253.78
-2.23919 184.086 -253.043
-44.6265 178.192 -254.056
-2.49602 183.162 -253.537
-45.0135 179.162 -253.218
-43.3691 179.314 -253.382
-2.54279 184.43 -252.771
-1.84776 183.968 -252.85
-45.3976 178.252 -253.352
-45.3756 179.968 -252.062
-43.4232 179.844 -252.636
-2.97519 184.728 -252.252
-1.56977 184.631 -251.964
-3.34698 184.851 -251.658
-45.7007 178.904 -252.454
-45.2647 180.812 -251.289
-43.4735 180.448 -251.711
-3.64541 185.629 -251.061
-1.40304 185.083 -250.918
-1.03319 184.793 -250.407
-45.2098 181.267 -250.239
-43.3097 181.159 -250.574
-4.17281 185.766 -250.287
-1.98914 186.056 -250.162
-44.5576 181.962 -250.377
-43.0658 182.107 -249.837
-4.76749 185.949 -249.435
-2.36264 186.601 -249.442
-44.2578 182.32 -249.867
-42.3096 182.082 -249.188
-5.21638 186.822 -248.971
-2.93018 187.035 -249.294
-43.8766 182.628 -249.275
-41.9171 182.71 -248.743
-41.2878 183.006 -248.299
-5.80907 186.72 -248.238
-44.6526 182.063 -249.563
-2.53059 186.719 -248.751
-43.4005 182.923 -248.716
-40.6516 182.996 -247.824
-5.9281 187.064 -247.983
-3.64207 187.473 -248.882
-42.8579 183.04 -248.113
-41.6461 183.247 -247.883
-41.0514 183.245 -247.821
-5.67306 187.315 -247.708
-4.8141 187.529 -247.573
-4.11456 187.541 -248.171
-43.8483 182.731 -248.459
-43.0008 182.945 -247.334
-42.0604 183.15 -247.333
-40.8195 183.151 -247.253
-39.8664 182.965 -246.771
-6.49788 186.936 -246.87
-6.02709 187.208 -246.756
-5.35566 187.376 -246.875
-25.3131 160.157 -278.723
-24.0099 160.19 -278.88
-22.7793 160.283 -278.955
-21.5518 160.424 -278.966
-20.3266 160.586 -278.927
-19.1165 160.735 -278.856
-17.9117 160.843 -278.759
-16.6969 160.91 -278.625
-15.5841 161.007 -278.462
-27.816 160.48 -277.987
-26.513 160.543 -278.254
-25.4807 160.967 -278.157
-24.4426 160.941 -278.324
-23.2395 161.01 -278.406
-22.0142 161.144 -278.41
-20.7662 161.331 -278.342
-19.5194 161.505 -278.256
-18.302 161.631 -278.174
-17.0998 161.723 -278.077
-15.9145 161.768 -277.977
-14.7451 161.704 -277.897
-26.39 162.316 -276.851
-25.3734 162.311 -277.032
-24.1647 162.355 -277.155
-22.9417 162.451 -277.181
-21.7099 162.596 -277.136
-20.5323 162.787 -277.032
-29.9421 160.815 -276.985
-28.876 160.859 -277.394
-28.0159 161.224 -277.414
-27.226 161.16 -277.665
-26.2031 161.565 -277.55
-24.8914 161.643 -277.711
-23.687 161.705 -277.804
-22.466 161.821 -277.815
-21.226 162.004 -277.742
-19.8795 162.31 -277.531
-18.6159 162.403 -277.473
-17.4031 162.524 -277.355
-16.1944 162.584 -277.265
-14.975 162.574 -277.177
-13.6654 162.444 -277.053
-12.5801 162.549 -276.665
-26.9161 162.684 -276.362
-19.6364 163.018 -276.852
-27.6626 162.726 -276.113
-19.1097 163.444 -276.397
-18.3251 163.678 -276.13
-30.5772 161.573 -276.112
-29.4519 161.591 -276.594
-28.5394 161.625 -276.909
-27.4801 161.979 -276.899
-18.8656 163.047 -276.835
-17.6862 163.326 -276.52
-16.4331 163.389 -276.419
-15.2074 163.419 -276.334
-13.969 163.388 -276.242
-12.693 163.33 -276.058
-28.0383 163.094 -275.568
-17.5397 163.96 -275.791
-28.6662 163.192 -275.199
-22.0127 164.217 -274.87
-21.0867 164.332 -274.82
-17.2087 164.339 -275.295
-31.5761 162.175 -275.097
-30.4988 162.398 -275.357
-29.814 162.204 -275.865
-28.6974 162.438 -276.051
-16.6572 164.148 -275.515
-15.4106 164.223 -275.382
-14.1675 164.225 -275.331
-12.988 164.173 -275.264
-11.9535 164.084 -275.147
-28.8228 163.679 -274.44
-22.9946 164.177 -274.815
-20.4765 164.632 -274.35
-16.6997 164.644 -274.853
-24.4836 164.441 -274.135
-23.5147 164.402 -274.308
-19.5633 164.784 -274.228
-18.4525 164.928 -274.167
-17.4187 165.023 -274.167
-16.6854 164.983 -274.315
-32.5442 162.667 -274.152
-31.5503 163.041 -274.125
-30.6583 163.035 -274.501
-29.5901 162.983 -275.046
-22.4551 164.613 -273.986
-21.2712 164.65 -274.136
-15.6891 165.026 -274.278
-14.2908 165.018 -274.317
-13.069 164.989 -274.307
-11.983 164.844 -274.327
-28.6425 164.19 -273.68
-25.4373 164.49 -273.959
-27.8347 164.516 -273.399
-26.8004 164.687 -273.353
-25.8974 164.726 -273.435
-33.1135 163.487 -272.99
-31.8963 163.6 -273.269
-30.7994 163.747 -273.466
-29.5994 163.856 -273.782
-24.8298 164.915 -273.143
-23.4889 164.839 -273.369
-22.3946 165.039 -273.028
-21.4007 165.074 -273.169
-20.1346 165.11 -273.43
-18.7597 165.328 -273.332
-17.5517 165.475 -273.317
-16.3473 165.531 -273.418
-15.1882 165.807 -273.115
-14.2826 165.764 -273.262
-13.1089 165.775 -273.28
-11.8229 165.753 -273.229
-34.1275 164.016 -272.067
-32.9951 164.316 -272.038
-32.0916 164.298 -272.292
-30.986 164.408 -272.454
-29.8108 164.559 -272.599
-28.5175 164.747 -272.73
-27.1687 165.09 -272.511
-25.8475 165.21 -272.514
-24.6944 165.424 -272.191
-23.7591 165.319 -272.381
-22.8316 165.264 -272.493
-21.7074 165.553 -272.049
-20.3546 165.652 -272.267
-19.0481 165.794 -272.372
-17.7769 165.965 -272.379
-16.5544 166.119 -272.379
-15.3721 166.285 -272.324
-14.2622 166.418 -272.278
-13.1638 166.487 -272.284
-12.0102 166.535 -272.243
-10.832 166.587 -272.092
-78.0473 159.032 -271.691
-77.8749 159.123 -271.649
-35.1114 164.486 -271.214
-34.1216 164.847 -271.14
-33.2457 164.865 -271.321
-32.2129 164.969 -271.414
-31.1312 165.075 -271.509
-29.9768 165.221 -271.582
-28.77 165.392 -271.637
-27.5288 165.587 -271.623
-26.2815 165.758 -271.568
-25.0544 165.874 -271.493
-23.8694 165.878 -271.485
-22.7194 165.739 -271.619
-20.5359 166.231 -271.183
-19.229 166.37 -271.35
-17.9667 166.523 -271.413
-16.7293 166.689 -271.417
-15.5207 166.861 -271.391
-14.3505 167.022 -271.354
-13.2175 167.147 -271.328
-12.107 167.226 -271.306
-11.0319 167.258 -271.258
-10.0812 167.235 -271.176
-35.5961 165.272 -270.227
-34.5052 165.396 -270.438
-33.4551 165.512 -270.544
-32.4009 165.608 -270.623
-31.2887 165.743 -270.657
-30.1263 165.896 -270.682
-28.9364 166.054 -270.71
-27.7441 166.206 -270.731
-26.5819 166.334 -270.741
-25.4055 166.479 -270.691
-24.1408 166.568 -270.643
-22.7764 166.497 -270.675
-20.5137 167.034 -270.221
-19.3183 167.075 -270.391
-18.0903 167.19 -270.465
-16.8599 167.336 -270.478
-15.6398 167.5 -270.455
-14.4416 167.666 -270.419
-13.2765 167.811 -270.386
-12.1544 167.91 -270.368
-11.0895 167.939 -270.364
-10.1083 167.874 -270.375
-24.5237 168.222 -269.048
-23.5292 168.225 -269.111
-22.3138 168.269 -269.124
-36.0284 166.085 -269.275
-34.8587 166.12 -269.601
-33.7265 166.186 -269.778
-32.6332 166.254 -269.886
-31.5239 166.409 -269.894
-30.3292 166.608 -269.866
-29.1067 166.764 -269.884
-27.907 166.901 -269.914
-26.7436 167 -269.966
-25.7793 166.999 -270.072
-24.5837 167.384 -269.797
-23.146 167.389 -269.846
-21.5737 167.443 -269.804
-20.3014 167.862 -269.512
-19.3488 167.883 -269.565
-18.1715 167.98 -269.585
-16.9528 168.091 -269.583
-15.7297 168.232 -269.545
-14.5169 168.384 -269.493
-13.3286 168.526 -269.445
-12.1798 168.629 -269.415
-11.0954 168.658 -269.42
-10.0991 168.584 -269.467
-24.9963 168.622 -268.658
-21.3642 168.445 -269.015
-30.5707 168.282 -268.32
-29.5724 168.345 -268.397
-28.3713 168.448 -268.453
-27.17 168.546 -268.501
-25.9754 168.602 -268.576
-20.8029 169 -268.585
-19.9219 169.235 -268.419
-18.8317 169.47 -268.266
-36.8194 166.517 -268.507
-35.9744 166.862 -268.555
-35.1472 166.874 -268.796
-34.0143 166.951 -268.977
-32.8325 166.976 -269.151
-31.8657 166.952 -269.308
-30.6825 167.405 -269.059
-29.3372 167.529 -269.121
-28.1074 167.657 -269.16
-26.8999 167.758 -269.216
-25.6263 167.807 -269.313
-20.573 168.431 -269.049
-19.5334 168.621 -268.934
-18.2795 168.892 -268.76
-17.0417 168.937 -268.758
-15.8112 169.065 -268.679
-14.586 169.192 -268.597
-13.3809 169.315 -268.516
-12.2082 169.406 -268.455
-11.0776 169.436 -268.426
-10.0564 169.343 -268.489
-31.0443 168.705 -267.907
-17.9358 169.723 -268.085
-34.3097 168.702 -267.303
-33.3075 168.683 -267.546
-32.0708 168.686 -267.765
-17.3463 170.26 -267.635
-16.4788 170.538 -267.395
-37.1064 167.198 -267.622
-36.2544 167.379 -267.921
-35.47 167.445 -268.157
-34.4076 167.818 -268.085
-33.0587 167.809 -268.36
-31.7191 167.816 -268.557
-17.1538 169.721 -268.089
-15.9222 170.001 -267.844
-14.6762 170.075 -267.752
-13.4543 170.19 -267.61
-12.2675 170.244 -267.511
-11.1183 170.255 -267.428
-9.93272 170.211 -267.35
-34.6744 169.144 -266.771
-15.5984 170.838 -267.131
-35.3415 169.181 -266.436
-21.694 170.572 -266.511
-20.9263 170.756 -266.375
-15.0407 171.39 -266.624
-14.1987 171.689 -266.305
-37.226 167.855 -266.754
-36.5092 167.906 -267.216
-35.4406 168.297 -267.306
-14.8107 170.871 -267.066
-13.5865 171.17 -266.707
-12.3658 171.141 -266.591
-11.2387 171.09 -266.478
-10.1668 171.009 -266.358
-9.2199 170.906 -266.224
-35.572 169.7 -265.634
-22.479 170.467 -266.465
-20.5142 170.915 -265.924
-13.3525 172.01 -265.936
-25.3874 170.548 -265.723
-23.9487 170.345 -265.816
-22.7951 170.414 -265.916
-19.7168 171.175 -265.635
-18.7922 171.617 -265.223
-12.9753 172.492 -265.409
-37.3307 168.427 -265.827
-36.3234 168.718 -266.331
-22.0138 170.56 -266.041
-21.2569 170.709 -265.915
-12.4797 172.079 -265.685
-11.3923 171.92 -265.578
-10.3653 171.775 -265.428
-9.37845 171.572 -265.261
-35.5893 170.216 -264.851
-26.5168 170.92 -265.633
-18.2676 171.937 -264.861
-12.4428 172.751 -264.974
-35.0878 170.702 -264.467
-27.0163 170.997 -264.775
-17.8146 172.149 -264.375
-36.5546 169.448 -264.929
-26.0528 170.707 -265.079
-18.6183 171.673 -264.565
-11.5583 172.727 -264.639
-10.6395 172.406 -264.706
-9.68354 172.335 -264.254
-34.8679 170.954 -263.932
-28.0203 171.451 -264.494
-17.1396 172.492 -263.874
-12.3376 173.174 -264.291
-34.2975 171.208 -263.644
-29.211 171.639 -263.564
-28.4143 171.457 -263.822
-16.3566 172.847 -263.629
-15.4305 173.225 -263.241
-36.5259 169.915 -263.649
-35.6577 170.446 -264.012
-17.5893 172.123 -263.722
-11.4974 173.287 -263.637
-10.476 172.934 -263.728
-33.8839 171.261 -263.113
-30.0427 171.786 -263.571
-14.6789 173.381 -262.793
-12.4187 173.497 -263.512
-32.8053 171.389 -262.87
-31.5445 171.621 -263.022
-30.5229 171.718 -263.049
-13.6414 173.444 -262.601
-12.478 173.532 -262.742
-36.4384 170.069 -262.878
-35.8297 170.431 -263.032
-34.8424 170.912 -263.156
-29.7864 171.702 -263.066
-15.2047 173.151 -262.66
-11.667 173.492 -262.955
-10.7971 173.301 -262.885
-39.1109 174.304 -257.598
-38.0817 174.153 -257.732
-37.3158 174.175 -257.57
-36.5962 174.011 -257.647
-5.84887 178.044 -257.036
-5.06315 179.603 -256.081
-41.7013 174.857 -256.763
-40.2735 174.679 -257.115
-39.4261 174.707 -257.106
-38.5459 174.567 -257.079
-6.56653 178.154 -256.687
-5.84682 178.565 -256.676
-4.88642 178.935 -256.584
-3.75642 179.007 -256.497
-5.30171 179.83 -255.515
-4.48215 179.791 -256.138
-42.7144 176.464 -255.468
-3.92842 180.224 -255.825
-3.00168 180.216 -255.599
-43.0061 175.237 -256.181
-42.1475 175.751 -255.947
-41.0209 175.237 -256.418
-39.8993 175.024 -256.398
-5.93926 178.931 -256.165
-3.88472 179.653 -256.185
-3.21423 179.402 -256.129
-43.212 176.905 -255.195
-42.1692 176.375 -255.322
-5.05982 180.283 -254.927
-2.30688 180.78 -255.117
-43.7367 177.009 -255.026
-4.61935 180.789 -254.628
-2.10649 181.282 -254.766
-44.0849 175.583 -255.564
-43.3277 176.244 -255.517
-41.18 175.677 -255.613
-1.8425 180.829 -254.844
-44.222 177.412 -254.647
-42.4575 176.92 -254.859
-4.43525 180.987 -254.114
-1.60926 181.369 -254.356
-44.7688 177.364 -254.387
-42.7391 177.53 -254.212
-4.04455 181.481 -253.913
-44.9597 175.873 -254.866
-44.367 176.634 -254.92
-45.1834 177.652 -253.932
-43.0439 178.472 -253.606
-3.60738 182.115 -253.491
-1.42884 182.44 -253.477
-45.6332 177.512 -253.503
-3.0616 182.953 -253.416
-45.288 176.828 -254.166
-0.727701 182.46 -252.713
-45.9745 177.924 -252.717
-43.0883 178.866 -252.91
-2.96019 183.737 -252.79
-1.17989 183.538 -252.473
-3.29372 182.936 -252.875
-0.673535 183.259 -251.905
-46.2578 178.51 -251.613
-43.1746 179.354 -252.019
-3.18446 184.21 -252.155
-1.0468 184.194 -251.621
-45.9081 179.401 -251.579
-3.42012 184.093 -251.667
-0.942869 184.464 -250.963
-3.3219 183.434 -252.209
-0.701332 183.864 -251.244
-45.7662 180.158 -250.798
-43.1664 179.864 -251.027
-3.75108 184.621 -250.883
-0.666558 184.103 -250.467
-0.913655 184.687 -249.848
-46.1935 179.278 -250.873
-45.8192 180.479 -249.524
-42.9254 180.225 -250.04
-4.27604 184.888 -249.842
-1.36176 185.333 -249.725
-42.6851 181.269 -249.619
-4.82359 185.093 -248.933
-46.2359 179.581 -249.951
-1.01015 184.846 -249.181
-45.2225 181.436 -248.856
-41.9354 181.249 -248.82
-5.38159 186.041 -248.607
-1.96645 186.122 -248.922
-44.4897 182.293 -248.734
-41.3439 181.979 -248.48
-40.8284 182.554 -248.152
-5.99163 186.026 -247.817
-2.38029 186.49 -248.158
-44.2976 182.468 -248.215
-39.8904 182.433 -247.549
-6.29388 186.699 -247.501
-3.12521 186.972 -247.926
-43.9125 182.571 -247.637
-39.8322 182.805 -247.203
-6.94629 186.386 -246.669
-4.09931 187.327 -247.262
-44.7158 182.023 -248.035
-2.47324 186.443 -247.594
-43.452 182.682 -246.922
-39.2818 182.674 -246.686
-6.98304 186.63 -246.286
-4.70951 187.406 -246.88
-42.5747 182.889 -246.597
-41.4848 183.089 -246.65
-40.3629 182.995 -246.211
-39.4486 182.801 -246.332
-6.50879 186.897 -246.169
-5.73477 187.09 -246.102
-4.90209 187.185 -246.23
-44.0487 182.302 -246.842
-4.27887 187.186 -246.523
-40.63 182.873 -245.492
-19.1426 158.417 -279.855
-25.6685 159.378 -279.077
-24.6975 159.371 -279.22
-23.4807 159.431 -279.354
-22.2555 159.545 -279.429
-21.0207 159.68 -279.445
-19.8127 159.852 -279.396
-18.6329 159.976 -279.299
-17.4148 160.041 -279.154
-16.0508 160.006 -278.916
-26.5543 158.264 -279.152
-25.4424 158.562 -279.353
-24.1 158.568 -279.575
-22.8571 158.686 -279.716
-21.6409 158.813 -279.79
-20.3213 158.89 -279.806
-19.2352 159.251 -279.657
-18.0877 159.123 -279.56
-16.9086 159.348 -279.323
-16.2536 159.34 -279.169
-26.256 159.77 -278.781
-15.0939 160.506 -278.586
-28.0676 159.726 -278.314
-27.1689 159.734 -278.562
-14.8082 161.042 -278.343
-28.8875 158.622 -278.21
-27.6981 158.842 -278.676
-26.4961 159.083 -278.999
-14.2236 160.627 -278.304
-13.3156 160.515 -277.973
-28.6483 160.131 -277.934
-14.2504 161.261 -278.101
-30.1385 160.207 -277.24
-29.4635 160.138 -277.582
-13.8098 161.674 -277.704
-12.741 161.693 -277.24
-30.0995 159.354 -277.478
-28.846 159.466 -278.098
-13.5429 161.143 -277.897
-12.8456 160.955 -277.648
-30.884 160.522 -276.667
-11.9133 162.218 -276.589
-31.5518 159.681 -276.587
-11.0051 162.373 -276.011
-31.5169 161.294 -275.901
-11.832 162.911 -276.116
-32.2376 161.48 -275.413
-11.747 163.532 -275.611
-32.6623 160.121 -275.783
-32.054 160.729 -275.947
-11.0157 163.268 -275.467
-10.2154 162.865 -275.255
-32.5771 161.931 -274.881
-11.1815 163.887 -275.053
-33.0499 162.068 -274.524
-33.201 161.284 -274.968
-10.1052 163.837 -274.485
-33.6556 162.403 -273.894
-11.0427 164.527 -274.371
-34.4337 161.611 -274.063
-10.0295 164.945 -273.528
-8.94566 164.45 -273.317
-34.138 163.151 -272.995
-10.9551 165.346 -273.514
-34.7949 163.289 -272.581
-10.7691 165.999 -272.775
-35.4006 161.912 -273.238
-34.7232 162.563 -273.239
-10.0498 165.794 -272.757
-9.08161 165.489 -272.583
-8.15488 165.082 -272.383
-35.1305 163.714 -272.009
-10.176 166.347 -272.238
-78.2021 158.746 -271.693
-77.945 158.997 -271.715
-35.7749 163.776 -271.608
-21.4039 165.942 -271.262
-9.94731 166.766 -271.705
-78.3582 158.303 -271.644
-36.2115 162.261 -272.388
-35.5734 162.981 -272.397
-9.29499 166.408 -271.83
-8.07405 166.015 -271.564
-78.3032 158.774 -271.52
-77.7736 158.994 -271.559
-36.2123 164.373 -270.804
-21.9214 165.826 -271.363
-21.1811 166.32 -270.776
-9.38436 167.071 -271.178
-77.9779 159.021 -271.459
-77.7464 159.045 -271.413
-36.5737 163.277 -271.442
-21.6485 166.044 -270.994
-8.42043 167.095 -270.719
-7.32508 166.666 -270.535
-36.633 165.158 -269.885
-22.0981 166.112 -270.956
-21.3526 166.688 -270.382
-9.23536 167.652 -270.446
-21.8831 166.565 -270.486
-76.2597 159.017 -269.72
-37.2812 164.205 -270.271
-21.6308 166.294 -270.7
-8.32218 168.018 -269.674
-7.44528 167.536 -269.747
-36.9284 165.772 -269.19
-9.18616 168.384 -269.549
-37.464 165.863 -268.768
-38.0543 164.499 -269.482
-37.4726 165.167 -269.39
-8.30471 168.809 -268.72
-7.47112 168.362 -268.83
-37.6934 166.381 -268.042
-9.15675 169.127 -268.609
-38.1604 165.383 -268.587
-8.3172 169.549 -267.762
-7.5146 169.133 -267.865
-37.8742 167.046 -267.123
-9.11093 169.855 -267.656
-9.00246 170.428 -266.858
-38.4377 166.147 -267.487
-8.37005 170.221 -266.845
-7.60449 169.862 -266.844
-37.9352 167.684 -266.223
-8.55205 170.726 -266.196
-38.5429 166.861 -266.438
-7.82201 170.617 -265.718
-37.9095 168.105 -265.622
-8.53289 171.212 -265.316
-37.7471 168.547 -264.927
-24.3178 170.052 -264.842
-23.0366 170.13 -265.113
-21.8395 170.399 -265.315
-20.5547 170.769 -265.213
-19.4636 171.198 -264.851
-38.4251 167.638 -265.397
-7.88287 171.265 -264.477
-37.3226 169.207 -264.015
-25.3777 170.364 -264.846
-19.0569 171.101 -264.081
-8.59876 171.881 -264.036
-26.8117 170.453 -263.779
-26.0425 170.411 -264.378
-18.2408 171.662 -263.896
-9.10103 172.498 -263.412
-37.9591 168.657 -264.106
-7.96195 171.61 -263.789
-37.0751 169.519 -262.965
-27.6908 171.041 -263.808
-17.7029 171.617 -263.24
-9.62665 172.808 -263.367
-28.5535 171.049 -263.009
-16.8794 172.309 -263.197
-15.9412 172.833 -262.897
-37.7995 168.904 -263.406
-9.25383 172.804 -262.786
-36.5118 169.907 -262.348
-29.332 171.472 -262.877
-15.3385 172.697 -262.285
-9.9215 173.078 -262.839
-36.0226 170.26 -262.4
-35.2277 170.53 -262.122
-33.8831 170.918 -262.316
-32.7095 171.027 -262.132
-31.7715 171.28 -262.337
-30.9031 171.489 -262.534
-30.0271 171.42 -262.535
-14.4003 173.072 -262.19
-13.3686 173.116 -261.902
-12.4667 173.261 -261.994
-11.3114 173.304 -262.2
-10.1854 173.138 -262.218
-29.3174 171.121 -262.493
-9.52791 172.978 -262.332
-35.447 170.393 -261.596
-39.3294 173.767 -257.974
-38.3915 173.684 -258.057
-37.2694 173.657 -258.035
-36.6875 173.868 -257.868
-6.37605 177.179 -257.371
-40.4639 172.644 -258.176
-39.0892 172.94 -258.282
-37.6939 172.923 -258.329
-36.7764 172.954 -258.25
-9.77158 175.076 -257.627
-39.9573 174.131 -257.675
-36.26 173.739 -257.783
-6.68979 177.642 -257.078
-5.49484 177.525 -257.339
-41.9553 174.168 -257.154
-40.9485 174.143 -257.438
-36.7866 174.017 -257.199
-36.2398 173.795 -257.525
-7.29457 177.485 -256.827
-4.90778 178.015 -257.11
-4.07666 178.342 -256.844
-42.754 172.941 -257.4
-41.6176 173.29 -257.656
-40.2241 173.522 -257.927
-7.88631 176.818 -256.979
-7.17561 177.155 -257.187
-4.90505 177.416 -257.365
-42.5857 174.562 -256.735
-37.6138 174.347 -257.02
-7.23196 177.811 -256.428
-3.40904 178.513 -256.614
-43.313 174.575 -256.432
-38.2208 174.462 -256.465
-6.79379 178.291 -256.215
-3.10691 178.9 -256.327
-43.6048 173.147 -256.871
-42.882 173.857 -256.943
-2.87817 178.37 -256.392
-43.7915 174.93 -256.043
-38.9982 174.753 -256.311
-6.65283 178.514 -255.679
-2.37942 178.988 -255.803
-44.2263 174.961 -255.804
-39.6119 174.876 -255.663
-6.03971 179.153 -255.461
-1.99287 180.097 -255.173
-44.1712 174.189 -256.105
-44.7027 175.062 -255.423
-40.3518 175.25 -255.494
-5.6415 179.573 -254.789
-1.35805 180.432 -254.581
-45.3397 175.18 -254.84
-40.9689 175.525 -254.758
-5.00318 180.32 -254.37
-45.1665 174.455 -255.264
-45.7118 175.824 -254.157
-41.8676 176.376 -254.635
-4.7331 180.427 -253.668
-0.931386 181.062 -253.883
-42.2056 176.768 -253.572
-4.19469 181.201 -253.516
-0.731368 181.7 -253.297
-0.46828 180.992 -253.387
-46.0795 176.798 -253.195
-42.7247 177.829 -253.235
-3.94731 181.45 -252.879
-0.327422 181.453 -252.826
-46.4837 177.431 -252.036
-42.8718 178.224 -252.303
-3.61614 182.275 -252.318
-0.272126 182.197 -252.048
-46.6598 177.875 -251.137
-42.996 178.664 -251.343
-3.59795 183.173 -251.287
-0.324587 183.057 -251.101
-46.5605 178.597 -250.385
-42.9816 179.056 -250.379
-3.87867 183.637 -250.183
-0.313928 183.409 -250.162
-46.5668 179.001 -249.103
-42.7654 179.326 -249.452
-4.27278 183.964 -249.212
-0.601619 184.093 -249.407
-46.2298 179.826 -249.04
-42.4363 180.359 -249.145
-4.76328 184.196 -248.326
-0.888687 184.542 -248.391
-45.9267 180.379 -248.301
-41.7549 180.34 -248.321
-5.41826 185.2 -248.093
-1.38323 185.327 -248.545
-41.0261 181.113 -248.044
-40.1816 181.79 -247.709
-6.05552 185.194 -247.307
-46.3618 179.588 -248.388
-45.3288 181.197 -247.654
-39.3383 181.945 -247.248
-6.6264 185.891 -247.032
-1.93863 185.877 -247.662
-44.6672 181.86 -247.169
-39.0104 182.206 -246.865
-7.28591 185.603 -246.212
-2.56291 186.204 -246.728
-38.9169 181.799 -246.958
-44.4143 181.761 -246.327
-38.7779 182.296 -246.099
-7.37124 186.147 -245.976
-3.53144 186.828 -246.578
-43.4815 182.362 -246.196
-42.6859 182.623 -245.937
-41.6848 182.801 -245.761
-39.4243 182.707 -245.792
-7.05251 186.431 -245.643
-6.22948 186.625 -245.29
-5.06383 186.774 -245.323
-4.14886 186.806 -245.794
-38.2817 181.853 -245.937
-7.688 185.61 -245.637
-41.0664 182.656 -245.072
-39.9746 182.845 -245.528
-40.213 182.582 -244.941
-41.7799 182.429 -244.949
-39.5328 182.599 -245.251
-6.26634 186.234 -244.505
-5.49457 186.406 -244.565
-19.4595 157.549 -279.924
-20.1094 158.114 -279.998
-18.6132 157.794 -279.831
-26.4792 157.45 -279.143
-25.7358 157.742 -279.38
-24.5895 157.596 -279.598
-23.3005 157.817 -279.813
-22.1245 157.989 -279.937
-21.0255 158.125 -279.997
-17.9882 158.204 -279.669
-17.0973 158.605 -279.425
-16.4062 158.934 -279.244
-23.4851 156.947 -279.735
-22.3842 157.156 -279.889
-21.2888 157.372 -279.981
-20.4416 157.6 -280.021
-17.9304 157.584 -279.628
-27.2489 157.947 -278.94
-15.5761 159.044 -278.885
-28.8601 157.791 -278.152
-28.0428 157.934 -278.587
-14.6798 159.768 -278.53
-13.7661 160.03 -278.2
-29.5734 158.352 -277.853
-13.0043 159.856 -277.829
-30.2786 158.328 -277.41
-12.5253 160.392 -277.575
-30.9521 158.873 -277.051
-12.1255 160.943 -277.242
-31.6758 158.815 -276.561
-11.4173 161.428 -276.636
-11.5591 160.79 -276.917
-32.2925 159.348 -276.166
-10.6237 161.712 -276.083
-33.0612 159.388 -275.558
-10.1074 162.027 -275.578
-10.2279 161.528 -275.847
-33.596 160.293 -275.1
-9.6496 162.48 -275.062
-33.8268 159.677 -274.95
-9.14219 162.477 -274.598
-34.1033 160.916 -274.614
-9.49392 163.029 -274.653
-34.5624 161.013 -274.282
-8.94756 163.447 -273.949
-34.5017 160.355 -274.389
-9.01209 162.899 -274.315
-35.0278 161.141 -273.863
-8.40879 163.863 -273.329
-35.5105 161.29 -273.434
-7.97647 164.236 -272.759
-35.4715 160.606 -273.491
-8.03585 163.721 -273.069
-35.9415 161.451 -272.973
-7.54801 164.759 -272.179
-78.7582 157.703 -271.534
-36.4973 161.636 -272.364
-36.2497 160.917 -272.676
-7.04051 164.808 -271.716
-78.6686 158.251 -271.521
-78.2453 157.888 -271.485
-36.9463 162.22 -271.681
-7.42506 165.314 -271.741
-77.9356 158.6 -271.548
-6.97276 165.769 -271.03
-79.1575 157.552 -271.355
-6.94218 165.231 -271.412
-78.6539 158.387 -271.229
-77.5178 158.709 -271.07
-37.6212 163.013 -270.699
-6.5946 166.326 -270.314
-78.248 158.678 -271.076
-77.7291 158.866 -270.969
-76.4121 158.947 -269.849
-79.1165 157.832 -271.111
-38.1023 162.422 -270.436
-6.02264 166.335 -269.731
34.463 170.249 -269.004
-76.4626 158.912 -269.736
-76.2472 158.915 -269.713
-38.016 163.812 -269.989
-6.63224 167.002 -269.726
-76.2917 158.842 -269.558
-38.365 163.987 -269.569
-77.0417 158.701 -270.142
-38.4697 163.244 -269.762
-5.96412 167.103 -268.973
33.4231 170.741 -268.248
-38.6842 164.292 -268.914
-6.67267 167.798 -268.918
-74.4328 159.348 -268.433
-74.3741 159.389 -268.432
-39.0896 163.428 -268.881
-6.00072 167.917 -268.118
-38.9265 165.157 -267.833
-6.72963 168.587 -267.995
-39.3083 164.175 -268.055
-6.08171 168.679 -267.154
-39.0968 165.894 -266.736
-6.8193 169.327 -266.977
-39.5138 164.891 -267.039
-6.19668 169.37 -266.072
-39.1702 166.593 -265.505
-6.95114 170.018 -265.839
-39.6479 165.551 -265.952
-6.32519 169.966 -264.878
-38.9356 167.386 -264.476
-7.08907 170.672 -264.48
-38.3931 168.103 -264.416
-24.1785 169.316 -263.895
-23.1835 169.557 -264.263
-22.1374 169.827 -264.462
-21.0724 170.144 -264.457
-20.0073 170.564 -264.285
-6.4377 170.374 -263.853
-38.3137 168.381 -263.665
-25.1513 169.873 -264.173
-19.4025 170.314 -263.492
-7.51893 171.316 -263.561
-26.786 169.764 -263.077
-25.9694 169.789 -263.62
-18.5065 170.942 -263.349
-8.01104 171.8 -263.145
-38.7201 167.876 -263.807
-38.1779 168.559 -263.045
-27.556 170.43 -263.103
-17.791 170.8 -262.693
-8.63355 172.33 -262.784
-37.7095 168.946 -262.568
-29.0913 170.406 -262.204
-28.1876 170.278 -262.562
-16.9676 171.507 -262.596
-16.1422 172.166 -262.45
-38.6078 168.09 -263.127
-8.09181 171.956 -262.335
-36.9256 169.402 -261.857
-29.8283 170.893 -262.144
-15.3867 172.006 -261.89
-9.06191 172.702 -262.253
-35.8875 170.038 -261.676
-34.4464 170.271 -261.438
-33.1228 170.458 -261.605
-31.962 170.684 -261.761
-30.7972 170.947 -262.026
-14.6318 172.425 -261.754
-13.6601 172.607 -261.534
-12.5686 172.742 -261.374
-11.4349 172.873 -261.396
-10.3393 172.888 -261.544
-9.48622 172.799 -261.826
-35.421 170.235 -261.367
-35.1567 170.441 -261.545
-35.3314 170.402 -261.422
-35.1307 170.283 -261.317
-40.8988 171.792 -258.312
-39.5369 171.769 -258.542
-38.13 172.014 -258.564
-36.741 171.991 -258.44
-9.86572 174.817 -257.649
-38.4799 171.102 -258.798
-37.3824 171.221 -258.733
-36.6762 171.234 -258.636
-8.37114 174.667 -257.924
-41.4155 172.429 -258.041
-36.1282 172.58 -258.166
-9.96214 175.034 -257.53